% Model:              stripline_filter_simple_decomp_new_mesh.mph
% Version:            COMSOL 6.1.0.252
% Date:               May 4 2023, 17:20
% Dimension:          3
% Nodes:              2539
% Expressions:        1
% Description:        Surface
% X                       Y                        Z                        real(emw.Ey)
0.0025                    0.0012                   0.010508                 -7.239880681642679
0.0024698101349522597     0.0012209727325653182    0.010508000000000002     230.04513938190635
0.0024680653412417963     0.0011827566901486716    0.010508000000000002     350.1552834548146
0.0024378754761940563     0.0012037294227139899    0.010508000000000002     554.9598784125903
0.0024396202699045197     0.0012419454651306364    0.010508                 443.9826198419677
0.002407685611146316      0.001224702155279308     0.010508                 754.5216451746629
0.0024094304048567798     0.0012629181976959547    0.010508                 630.9526203577202
0.002377495746098576      0.0012456748878446262    0.010508                 931.3863186524156
0.0023792405398090394     0.0012838909302612727    0.010508                 790.9551409291639
0.0023473058810508356     0.0012666476204099444    0.010508000000000002     1085.5538988458488
0.0023490506747612994     0.001304863662826591     0.010508                 923.9901815562986
0.0023171160160030957     0.0012876203529752627    0.010508000000000002     1219.0002399976365
0.002318860809713559      0.0013258363953919093    0.010508                 996.3246312106413
0.002436130682483593      0.0011655133802973433    0.010508                 700.7957792304645
0.0024059408174358526     0.0011864861128626615    0.010508                 890.445786895124
0.0023757509523881126     0.0012074588454279796    0.010508                 1075.778724663194
0.0023455610873403723     0.001228431577993298     0.010508                 1238.414569146944
0.002315371222292632      0.0012494043105586161    0.010508                 1379.5650399819465
0.002404196023725389      0.0011482700704460148    0.010508                 1041.0616663044857
0.002374006158677649      0.0011692428030113332    0.010508                 1221.2257724430701
0.002343816293629909      0.0011902155355766513    0.010508                 1392.3298812171365
0.002313626428582169      0.0012111882681419695    0.010508                 1541.133457217432
0.0023722613649671855     0.0011310267605946864    0.010508                 1370.9529446768788
0.0023420714999194455     0.0011519994931600047    0.010508                 1547.2998350564271
0.002311881634871705      0.001172972225725323     0.010508                 1703.7054917040923
0.002340326706208982      0.0011137834507433581    0.010508                 1690.469614347643
0.0023101368411612417     0.0011347561833086764    0.010508000000000002     1867.2811434419282
0.0023083920474507784     0.0010965401408920298    0.010508                 1997.2908689159124
0.0021305709943993576     0.0012227864674390753    0.010508                 2974.744685277967
0.0021602078365745947     0.0012017454130145678    0.010508000000000002     2838.658921683544
0.002161952630285058      0.0012399614554312144    0.010508000000000002     2635.687471043208
0.0021915894724602947     0.0012189204010067066    0.010508000000000002     2488.5526137841134
0.0021898446787498313     0.0011807043585900603    0.010508                 2693.915271405929
0.0022212263146355314     0.001197879346582199     0.010508                 2358.0372266417417
0.002219481520925068      0.0011596633041655526    0.010508                 2535.3812497015897
0.002250863156810768      0.0011768382921576916    0.010508                 2210.755713988375
0.0022491183631003046     0.0011386222497410448    0.010508                 2363.056856570528
0.002280499998986005      0.001155797237733184     0.010508000000000002     2046.7080758240147
0.0022787552052755417     0.0011175811953165376    0.010508                 2176.9420920127423
0.002193334266170758      0.0012571364434233534    0.010508                 2297.2134479849497
0.0022229711083459947     0.0012360953889988457    0.010508                 2172.588450585978
0.0022526079505212314     0.001215054334574338     0.010508                 2032.903715425544
0.0022822447926964685     0.0011940132801498307    0.010508                 1876.4528547541163
0.0022247159020564585     0.0012743114314154923    0.010508                 1964.1157307154197
0.002254352744231695      0.0012532703769909848    0.010508                 1856.004309595966
0.002283989586406932      0.001232229322566477     0.010508                 1707.1502264174703
0.0022560975379421586     0.0012914864194076311    0.010508                 1636.3943192346187
0.0022857343801173952     0.0012704453649831238    0.010508                 1538.8001908140777
0.002287479173827859      0.0013086614073997702    0.010508                 1314.0492135425468
0.0023490506747612994     0.0013437525517154799    0.010508000000000002     728.7981684321139
0.0023792405398090394     0.0013227798191501618    0.010508000000000002     669.8025078859911
0.0024094304048567798     0.0013018070865848433    0.010508                 549.2086808209397
0.0024396202699045197     0.0012808343540195253    0.010508                 397.376987151591
0.00246981013495226       0.0012598616214542072    0.010508000000000002     214.3074268779444
0.0025                    0.0012388888888888888    0.010508000000000002     0
0.0023792405398090394     0.0013616687080390507    0.010508                 510.1343765256772
0.0024094304048567798     0.0013406959754737324    0.010508                 456.1642661497379
0.0024396202699045197     0.0013197232429084142    0.010508                 335.34737737078973
0.0024698101349522597     0.001298750510343096     0.010508                 183.2926219875438
0.0024999999999999996     0.0012777777777777776    0.010508                 0
0.0024094304048567798     0.001379584864362621     0.010508                 326.3828662714626
0.0024396202699045197     0.001358612131797303     0.010508                 273.31776758998853
0.0024698101349522597     0.001337639399231985     0.010508                 152.27781709714316
0.0025                    0.0013166666666666665    0.010508                 0
0.0024396202699045197     0.001397501020686192     0.010508                 177.54363766947017
0.0024698101349522597     0.0013765282881208736    0.010508                 121.26301220674262
0.0024999999999999996     0.0013555555555555554    0.010508                 0
0.0024698101349522597     0.0014154171770097625    0.010508                 63.616690719700344
0.0025                    0.0013944444444444442    0.010508000000000002     0
0.0025                    0.0014333333333333331    0.010508                 -10.265316385233033
0.0024726941550544347     0.001451308863773799     0.010508000000000002     -51.49410778650076
0.002442504290006695      0.001433392707450228     0.010508000000000002     -2.4299252465589234
0.00244538831010887       0.0014692843942142645    0.010508                 -127.06043949177399
0.0024151984450611294     0.0014513682378906939    0.010508                 -80.08007144281714
0.002418082465163305      0.0014872599246547303    0.010508                 -242.09696969366792
0.0023878926001155644     0.0014693437683311595    0.010508                 -195.96526446571534
0.00239077662021774       0.0015052354550951959    0.010508                 -396.6036983921848
0.0023605867551699995     0.0014873192987716252    0.010508000000000002     -350.0855043152538
0.0023634707752721745     0.0015232109855356614    0.010508                 -590.5806255873231
0.0023332809102244345     0.0015052948292120908    0.010508000000000002     -541.4918211755886
0.0023361649303266095     0.0015411865159761272    0.010508                 -838.575609572454
0.0024123144249589548     0.0014154765511266575    0.010508                 100.89933705210217
0.00238500858001339       0.0014334520815671233    0.010508                 19.76450974781045
0.002357702735067825      0.001451427612007589     0.010508                 -99.60536438312091
0.002330396890122259      0.0014694031424480544    0.010508                 -255.5415137446535
0.002382124559911215      0.0013975603948030869    0.010508                 243.26141947870406
0.0023548187149656495     0.0014155359252435527    0.010508                 158.64191106637918
0.002327512870020084      0.0014335114556840182    0.010508                 37.7663958637321
0.0023519346948634745     0.0013796442384795163    0.010508                 424.6563220332479
0.002324628849917909      0.0013976197689199818    0.010508                 338.431907649569
0.002321744829815734      0.0013617280821559457    0.010508000000000002     646.4550216128572
0.002363470775272175      0.0015620998744245505    0.010508000000000002     -833.7219125828034
0.00239077662021774       0.0015441243439840852    0.010508000000000002     -570.5213427980966
0.002418082465163305      0.001526148813543619     0.010508                 -366.8329818486686
0.00244538831010887       0.0015081732831031536    0.010508                 -203.84997106584478
0.002472694155054435      0.0014901977526626878    0.010508000000000002     -81.57231044962441
0.0025                    0.001472222222222222     0.010508000000000002     -7.493871795175699E-12
0.00239077662021774       0.0015830132328729738    0.010508                 -767.1113111190889
0.002418082465163305      0.0015650377024325078    0.010508                 -502.76436873036755
0.00244538831010887       0.0015470621719920424    0.010508                 -294.47089565364377
0.0024726941550544355     0.0015290866415515767    0.010508                 -126.88277274352436
0.0025                    0.0015111111111111109    0.010508                 -7.793085766819794E-12
0.002418082465163305      0.0016039265913213969    0.010508                 -650.564391359693
0.00244538831010887       0.0015859510608809313    0.010508                 -385.0918202414441
0.0024726941550544355     0.0015679755304404655    0.010508                 -172.19323503742453
0.0025000000000000005     0.0015499999999999997    0.010508                 -7.852420929838595E-12
0.00244538831010887       0.00162483994976982      0.010508                 -484.0811533046171
0.0024726941550544355     0.0016068644193293544    0.010508                 -217.5036973313238
0.0025000000000000005     0.0015888888888888886    0.010508                 -7.6718772842321E-12
0.002472694155054435      0.0016457533082182435    0.010508                 -267.6615969538595
0.0025000000000000005     0.001627777777777778     0.010508000000000002     -7.251454830000314E-12
0.0025000000000000005     0.0016666666666666666    0.010508                 -0.8704815382786043
0.00235249314804445       0.0017192620913153804    0.010508                 -1967.7218725473335
0.0023497717784248104     0.0016895828287588383    0.010508000000000002     -1813.9265949313344
0.0023770776233703753     0.0017104961872072616    0.010508000000000002     -1628.1991939771178
0.002374356253750735      0.0016808169246507192    0.010508000000000002     -1485.9720871671366
0.00234705040880517       0.001659903566202296     0.010508                 -1637.064447488191
0.002371634884131095      0.0016511376620941772    0.010508                 -1336.66647651184
0.00234432903918553       0.001630224303645754     0.010508                 -1454.2407184290182
0.002368913514511455      0.0016214583995376348    0.010508                 -1181.3240536407984
0.0023416076695658896     0.0016005450410892116    0.010508                 -1265.4554077538148
0.002366192144891815      0.001591779136981093     0.010508000000000002     -1019.9448185540115
0.0023388862999462494     0.0015708657785326694    0.010508                 -1070.7085154625813
0.0024016620986963004     0.0017017302830991425    0.010508                 -1283.5087769336224
0.00239894072907666       0.0016720510205426003    0.010508                 -1168.270061146128
0.0023962193594570204     0.001642371757986058     0.010508                 -1045.7033297346582
0.00239349798983738       0.001612692495429516     0.010508                 -917.0997861074424
0.0024262465740222255     0.0016929643789910234    0.010508                 -948.4742212449039
0.0024235252044025853     0.0016632851164344814    0.010508                 -860.1255436583518
0.002420803834782945      0.0016336058538779393    0.010508                 -764.2976914907081
0.0024508310493481502     0.0016841984748829043    0.010508                 -623.0955269109634
0.0024481096797285104     0.0016545192123263623    0.010508                 -561.5385347038074
0.0024754155246740754     0.0016754325707747856    0.010508                 -307.3726939318004
0.0023770776233703753     0.0017493850760961504    0.010508000000000002     -1715.6458348709132
0.0024016620986963004     0.0017406191719880313    0.010508000000000002     -1369.3332907238464
0.0024262465740222255     0.0017318532678799123    0.010508                 -1012.3686467783992
0.0024508310493481502     0.0017230873637717936    0.010508                 -665.1582170092747
0.002475415524674076      0.0017143214596636745    0.010508000000000002     -327.7020014164732
0.0025000000000000005     0.0017055555555555556    0.010508000000000002     5.812772832227013E-12
0.0024016620986963        0.0017795080608769202    0.010508                 -1432.9960806184263
0.002426246574022225      0.0017707421567688011    0.010508                 -1077.7054346772402
0.0024508310493481502     0.0017619762526606825    0.010508                 -708.7160756085023
0.0024754155246740754     0.0017532103485525634    0.010508                 -349.48093071608736
0.0025000000000000005     0.0017444444444444443    0.010508                 4.90088074584961E-12
0.002426246574022225      0.0018096310456576902    0.010508                 -1120.7064457442953
0.0024508310493481502     0.0018008651415495711    0.010508                 -752.2739342077305
0.0024754155246740754     0.0017920992374414525    0.010508                 -371.25986001570186
0.0025000000000000005     0.0017833333333333334    0.010508                 3.860925388387471E-12
0.0024508310493481502     0.0018397540304384602    0.010508                 -778.7769302485202
0.002475415524674075      0.0018309881263303411    0.010508                 -393.03878931531654
0.0025                    0.001822222222222222     0.010508                 2.6929067598405992E-12
0.002475415524674075      0.00186987701521923      0.010508                 -407.2075341311021
0.0025                    0.0018611111111111111    0.010508000000000002     1.3968248602089966E-12
0.0025                    0.0019                   0.010508                 -5.998257392039505
0.001759805722332153      0.0012914660373471384    0.010508                 3714.7870684222344
0.0017232038199168189     0.0012920593424217805    0.010508000000000002     3824.8956645643
0.0017456271182991112     0.0012590729275019454    0.010508000000000002     4044.609145018201
0.0017090252158837769     0.0012596662325765875    0.010508000000000002     4136.723389299837
0.0016866019175014845     0.0012926526474964228    0.010508                 3898.5614952231062
0.0016724233134684425     0.0012602595376512296    0.010508                 4191.280049424472
0.0016500000150861502     0.0012932459525710647    0.010508                 3943.6259196670653
0.0016358214110531084     0.0012608528427258717    0.010508                 4215.560484830953
0.0016133981126708159     0.0012938392576457068    0.010508                 3960.088937896177
0.001599219508637774      0.0012614461478005138    0.010508000000000002     4209.564695519281
0.0015767962102554817     0.001294432562720349     0.010508                 3947.95054991044
0.00156261760622244       0.001262039452875156     0.010508000000000002     4199.622712220156
0.0015401943078401474     0.001295025867794991     0.010508                 3928.010909853432
0.0017314485142660694     0.0012266798176567523    0.010508                 4290.167192951139
0.0016948466118507349     0.0012272731227313944    0.010508                 4359.89659796466
0.0016582447094354007     0.0012278664278060365    0.010508                 4399.548411628428
0.0016216428070200666     0.0012284597328806788    0.010508                 4408.924000574041
0.001585040904604732      0.0012290530379553207    0.010508                 4406.642486915935
0.0017172699102330274     0.001194286707811559     0.010508                 4527.569611339772
0.001680668007817693      0.0011948800128862014    0.010508                 4576.065518718263
0.0016440661054023587     0.0011954733179608435    0.010508                 4600.812485921161
0.0016074642029870246     0.0011960666230354856    0.010508                 4606.888520844495
0.0017030913061999854     0.001161893597966366     0.010508                 4756.816400184101
0.0016664894037846513     0.0011624869030410082    0.010508                 4785.2301515606505
0.0016298875013693167     0.0011630802081156503    0.010508                 4800.3608140058395
0.0016889127021669434     0.001129500488121173     0.010508                 4977.907559484127
0.0016523107997516093     0.001130093793195815     0.010508000000000002     4987.059366399966
0.0016747340981339016     0.00109710737827598      0.010508                 5174.62934840975
0.0014520683779920887     0.001096237057718057     0.010508                 5252.393135941395
0.0014891793313490575     0.0010963821111443775    0.010508000000000002     5266.073411395792
0.0014667560329667652     0.0011293685260642128    0.010508000000000002     5065.726627548047
0.001503866986323734      0.0011295135794905332    0.010508000000000002     5096.408470323897
0.0015262902847060266     0.0010965271645706981    0.010508                 5275.463782236055
0.0015409779396807028     0.0011296586329168537    0.010508                 5099.908748316606
0.0015634012380629952     0.0010966722179970184    0.010508                 5270.648533195495
0.0015780888930376717     0.001129803686343174     0.010508                 5082.795468644879
0.001600512191419964      0.001096817271423339     0.010508                 5251.627664274109
0.0016151998463946405     0.0011299487397694948    0.010508000000000002     5045.068631308714
0.0016376231447769328     0.0010969623248496595    0.010508                 5218.4011754719
0.0014814436879414417     0.0011624999944103683    0.010508                 4867.285586592259
0.0015185546412984103     0.001162645047836689     0.010508                 4885.0616102009
0.0015556655946553793     0.0011627901012630094    0.010508                 4879.204416368037
0.0015927765480123481     0.0011629351546893298    0.010508                 4852.733664870737
0.0014961313429161182     0.001195631462756524     0.010508                 4664.690277398076
0.001533242296273087      0.0011957765161828447    0.010508                 4669.536702264396
0.0015703532496300558     0.001195921569609165     0.010508                 4654.322036605957
0.0015108189978907944     0.0012287629311026798    0.010508                 4457.9406999655
0.0015479299512477633     0.0012289079845290002    0.010508                 4449.833746514383
0.0015255066528654711     0.0012618943994488355    0.010508                 4247.036854294529
0.0015041086001332294     0.0012959317043370164    0.010508000000000002     3972.8281863703905
0.001489420945158553      0.0012628002359908609    0.010508000000000002     4274.474137401743
0.001468022892426311      0.0012968375408790418    0.010508                 3974.9855925367315
0.0014533352374516348     0.001263706072532886     0.010508                 4267.847644403821
0.0014319371847193929     0.0012977433774210671    0.010508                 3951.366883394844
0.0014172495297447166     0.0012646119090749114    0.010508                 4234.925434999284
0.0013958514770124747     0.0012986492139630923    0.010508                 3901.972058944729
0.0013811638220377984     0.0012655177456169368    0.010508000000000002     4175.707509188137
0.0013597657693055565     0.0012995550505051176    0.010508                 3826.801119186387
0.0013450781143308803     0.0012664235821589621    0.010508000000000002     4086.3256344314914
0.0013236800615986386     0.001300460887047143     0.010508                 3718.06081284651
0.0014747332901838763     0.001229668767644705     0.010508                 4471.332793753733
0.001438647582476958      0.0012305746041867305    0.010508                 4454.2807975038095
0.0014025618747700403     0.0012314804407287556    0.010508                 4410.933084847271
0.0013664761670631217     0.0012323862772707808    0.010508                 4345.123685976839
0.0014600456352092        0.0011965372992985494    0.010508                 4664.060961442445
0.0014239599275022818     0.0011974431358405748    0.010508                 4636.583461940517
0.0013878742197953636     0.0011983489723826       0.010508                 4592.69965568485
0.0014453579802345235     0.0011634058309523937    0.010508                 4852.658640467875
0.0014092722725276051     0.001164311667494419     0.010508                 4829.053543555519
0.001430670325259847      0.0011302743626062381    0.010508000000000002     5054.185349588854
0.0017168025357349528     0.0010970132129060096    0.010508000000000002     5163.973083259638
0.0017309811397679948     0.0011294063227512028    0.010508000000000002     4959.583405929969
0.0017588709733360043     0.0010969190475360394    0.010508                 5119.8944466978755
0.001773049577369046      0.0011293121573812321    0.010508                 4890.056306589859
0.0018009394109370555     0.0010968248821660689    0.010508                 5043.235090858498
0.0018151180149700975     0.0011292179920112618    0.010508                 4785.056823455418
0.0018430078485381068     0.0010967307167960986    0.010508                 4933.995015741502
0.0018571864525711486     0.0011291238266412915    0.010508000000000002     4644.584956526654
0.0018850762861391582     0.001096636551426128     0.010508                 4792.17422134689
0.0018992548901722        0.0011290296612713213    0.010508000000000002     4557.870780719868
0.0019271447237402095     0.0010965423860561578    0.010508                 4670.879684025649
0.0017451597438010364     0.0011617994325963956    0.010508                 4714.681470324098
0.0017872281814020879     0.0011617052672264253    0.010508                 4625.369562586129
0.0018292966190031393     0.001161611101856455     0.010508                 4500.585271053833
0.0018713650566041904     0.0011615169364864847    0.010508                 4407.553821367532
0.0017593383478340786     0.0011941925424415888    0.010508                 4460.472563540836
0.0018014067854351299     0.0011940983770716185    0.010508                 4351.375847405008
0.0018434752230361813     0.0011940042117016482    0.010508                 4246.967963047333
0.0017735169518671204     0.001226585652286782     0.010508                 4196.956685580182
0.0018155853894681717     0.0012264914869168115    0.010508                 4076.113205759271
0.0017876955559001624     0.0012589787621319752    0.010508000000000002     3894.9895495033443
0.0021391734391148975     0.0010384303219756498    0.010508                 3330.3815411561372
0.002167376540504211      0.0010481152917950465    0.010508000000000002     3186.8947020125142
0.002137739698328974      0.001069156346219554     0.010508000000000002     3317.705225177609
0.002165942799718288      0.001078841316038951     0.010508000000000002     3122.779097317834
0.0021955796418935245     0.0010578002616144432    0.010508                 2992.172175020921
0.002194145901107601      0.0010885262858583474    0.010508                 2907.42623719941
0.0022237827432828377     0.00106748523143384      0.010508                 2773.1998140112614
0.0022223490024969148     0.0010982112556777441    0.010508                 2671.173483340017
0.0022519858446721514     0.0010771702012532364    0.010508                 2529.977618983537
0.002250552103886228      0.0011078962254971408    0.010508000000000002     2414.020835739652
0.002280188946061465      0.0010868551710726331    0.010508                 2262.5055899377467
0.0021363059575430507     0.0010998823704634585    0.010508                 3257.935420744284
0.0021645090589323644     0.001109567340282855     0.010508                 3059.630642443749
0.002192712160321678      0.0011192523101022517    0.010508                 2839.504791322335
0.0022209152617109914     0.0011289372799216484    0.010508                 2598.479046459951
0.0021348722167571273     0.0011306083947073627    0.010508                 3198.8094419016925
0.002163075318146441      0.0011402933645267592    0.010508                 2997.021481962202
0.0021912784195357547     0.001149978334346156     0.010508                 2772.122639837797
0.002133438475971204      0.0011613344189512669    0.010508                 3140.3272886498316
0.0021616415773605176     0.0011710193887706634    0.010508                 2934.9516158731903
0.002132004735185281      0.001192060443195171     0.010508                 3082.488960988703
0.002103835319885783      0.0010481156659890678    0.010508000000000002     3568.4495611813427
0.0021024015790998595     0.0010788416902329722    0.010508000000000002     3551.4321642390114
0.002100967838313936      0.0011095677144768764    0.010508                 3499.106845997128
0.0020995340975280127     0.0011402937387207806    0.010508                 3447.529884544171
0.0020981003567420893     0.0011710197629646848    0.010508000000000002     3396.7012798801397
0.0020966666159561663     0.0012017457872085893    0.010508000000000002     3285.216328007833
0.0020684972006566682     0.001057801010002486     0.010508                 3803.0062071463744
0.002067063459870745      0.00108852703424639      0.010508                 3765.769804971845
0.0020656297190848215     0.0011192530584902944    0.010508                 3722.283313483631
0.002064195978298898      0.0011499790827341986    0.010508                 3679.5451787843426
0.0020627622375129747     0.0011807051069781028    0.010508                 3619.854388933004
0.0020331590814275536     0.0010674863540159037    0.010508                 4020.7939776544663
0.00203172534064163       0.0010982123782598081    0.010508                 3961.1913088584292
0.002030291599855707      0.0011289384025037123    0.010508                 3926.543644123885
0.0020288578590697834     0.0011596644267476165    0.010508                 3923.925413417636
0.001997820962198439      0.0010771716980293219    0.010508                 4221.812872705617
0.0019963872214125156     0.001107897722273226     0.010508                 4137.696675898765
0.001994953480626592      0.0011386237465171303    0.010508                 4197.429401461728
0.0019624828429693243     0.0010868570420427398    0.010508                 4406.062892299827
0.001961049102183401      0.001117583066286644     0.010508000000000002     4440.366353065282
0.0018095945733537417     8.866953298527028E-4     0.010508                 2801.3243378251027
0.0018291862650848198     9.216698392199453E-4     0.010508000000000002     3266.595286048854
0.0017871178274837685     9.217640045899157E-4     0.010508000000000002     3221.8613879186223
0.0018067095192148466     9.567385139571582E-4     0.010508000000000002     3597.4418549498846
0.0018487779568158978     9.56644348587188E-4      0.010508                 3606.1080067399303
0.0018263012109459241     9.917130233244005E-4     0.010508                 3940.935216474682
0.0018683696485469756     9.916188579544303E-4     0.010508                 3913.7347403477447
0.0018458929026770024     0.0010266875326916433    0.010508                 4256.021617636351
0.0018879613402780536     0.0010265933673216728    0.010508                 4189.475486872296
0.0018654845944080802     0.0010616620420588856    0.010508000000000002     4542.701058434895
0.0019075530320091314     0.0010615678766889153    0.010508                 4433.330246313586
0.001764641081613795      9.568326793271286E-4     0.010508                 3574.830268631961
0.0017842327733448731     9.91807188694371E-4      0.010508                 3956.181974186795
0.0018038244650759512     0.0010267816980616136    0.010508                 4308.68017159909
0.0018234161568070292     0.001061756207428856     0.010508                 4632.771408648258
0.0017421643357438217     9.919013540643413E-4     0.010508                 3945.3361591168214
0.0017617560274748997     0.001026875863431584     0.010508                 4331.649670800923
0.0017813477192059777     0.0010618503727988263    0.010508                 4693.1527041007175
0.0017196875898738482     0.0010269700288015543    0.010508                 4333.379059373204
0.0017392792816049263     0.0010619445381687968    0.010508                 4723.844944792268
0.0016972108440038748     0.0010620387035387671    0.010508                 4738.958969401107
0.0018465858646102306     8.830114705018941E-4     0.010508000000000002     2774.711457999604
0.0018661775563413086     9.179859798691365E-4     0.010508000000000002     3225.3272273512607
0.0018835771558667197     8.793276111510853E-4     0.010508                 2741.758947098158
0.0019031688475977973     9.143021205183277E-4     0.010508                 3159.3932414053447
0.0019205684471232084     8.756437518002765E-4     0.010508                 2700.214296764383
0.0019401601388542862     9.106182611675189E-4     0.010508                 3079.959301169768
0.001957559738379697      8.719598924494677E-4     0.010508                 2650.077506998281