% Model:              stripline_filter_simple_decomp_new_mesh.mph
% Version:            COMSOL 6.1.0.252
% Date:               May 3 2023, 13:17
% Dimension:          3
% Nodes:              2539
% Expressions:        1
% Description:        Surface
% X                       Y                        Z                        real(emw.Ey)
0.0019959126568695434     0.001534718753176286     0.010508                 -1890.784943860547
0.0019681050965114372     0.0015314223172516522    0.010508000000000002     -1850.196881357593
0.001989884368319946      0.0015041127116211543    0.010508000000000002     -1186.7319801122146
0.00196207680796184       0.001500816275696521     0.010508000000000002     -1125.4714458867898
0.0019402975361533313     0.001528125881327019     0.010508                 -1814.3448974665835
0.0019342692476037337     0.0014975198397718871    0.010508                 -1065.0775230180975
0.001912489975795225      0.0015248294454023852    0.010508                 -1772.9808012640233
0.0019064616872456277     0.0014942234038472536    0.010508                 -1003.8660031043756
0.001884682415437119      0.0015215330094777517    0.010508                 -1726.1045927499135
0.0018786541268875215     0.0014909269679226201    0.010508000000000002     -941.8368861456277
0.0018568748550790127     0.0015182365735531183    0.010508                 -1673.7162719242538
0.0018508465665294154     0.0014876305319979867    0.010508000000000002     -854.5913212354308
0.0018290672947209067     0.0015149401376284846    0.010508                 -1581.907277539649
0.0019838560797703487     0.001473506670066023     0.010508                 -555.3424302181508
0.0019560485194122425     0.0014702102341413894    0.010508                 -479.91363743745063
0.0019282409590541364     0.001466913798216756     0.010508                 -403.4964493149721
0.0019004333986960302     0.0014636173622921225    0.010508                 -326.26166414746643
0.001872625838337924      0.0014603209263674886    0.010508                 -237.84915279575802
0.001977827791220751      0.0014429006285108913    0.010508                 83.33176730636734
0.0019500202308626452     0.0014396041925862578    0.010508                 172.55298484290495
0.001922212670504539      0.0014363077566616244    0.010508                 264.9934382191681
0.0018944051101464328     0.0014330113207369909    0.010508                 356.49977974174146
0.0019717995026711536     0.00141229458695576      0.010508                 729.2906124613397
0.0019439919423130476     0.0014089981510311265    0.010508                 831.9284209542798
0.0019161843819549414     0.0014057017151064928    0.010508                 928.4554763770676
0.0019657712141215563     0.0013816885454006286    0.010508                 1382.5341052467656
0.0019379636537634503     0.001378392109475995     0.010508000000000002     1478.017937110221
0.001959742925571959      0.001351082503845497     0.010508                 2139.141337532039
0.0020241257828924643     0.0015195049091701958    0.010508000000000002     -1507.827534321154
0.002018097494342867      0.0014888988676150644    0.010508000000000002     -848.4405006036229
0.0020120692057932696     0.0014582928260599328    0.010508                 -230.8052008158055
0.0020060409172436722     0.0014276867845048015    0.010508                 394.49058040190164
0.002000012628694075      0.0013970807429496699    0.010508000000000002     1027.4468430494985
0.0019939843401444775     0.0013664747013945385    0.010508000000000002     1670.8332060845369
0.0020523389089153856     0.001504291065164106     0.010508                 -1168.2468261153476
0.002046310620365788      0.0014736850236089743    0.010508                 -530.1500376549475
0.0020402823318161904     0.0014430789820538427    0.010508                 71.87600532811229
0.002034254043266593      0.0014124729404987111    0.010508                 681.5625297410619
0.0020282257547169953     0.0013818668989435796    0.010508                 1323.3803906874155
0.002080552034938306      0.0014890772211580156    0.010508                 -849.0269022784626
0.0020745237463887086     0.001458471179602884     0.010508                 -233.54479966794793
0.0020684954578391113     0.0014278651380477529    0.010508                 352.87198651035436
0.002062467169289514      0.0013972590964926213    0.010508                 989.5026096240351
0.0021087651609612273     0.0014738633771519255    0.010508                 -550.167762810499
0.00210273687241163       0.0014432573355967942    0.010508                 41.37521335737597
0.002096708583862032      0.0014126512940416626    0.010508                 669.1998628943951
0.002136978286984148      0.0014586495331458354    0.010508                 -271.66940771145596
0.002130949998434551      0.0014280434915907038    0.010508000000000002     362.47215049849586
0.002165191413007069      0.0014434356891397453    0.010508                 44.648077378225885
0.0021305709943993576     0.0012227864674390753    0.010508                 2957.7370016490027
0.0021363410641673094     0.0012595613377225205    0.010508000000000002     2539.5951772962935
0.0021020996495947912     0.001244169140173479     0.010508000000000002     2865.7296466455286
0.002107869719362743      0.001280944010456924     0.010508000000000002     2416.9122501531338
0.0021421111339352617     0.0012963362080059652    0.010508                 2042.3972100286192
0.002113639789130695      0.001317718880740369     0.010508                 1908.9727619625723
0.002147881203703213      0.0013331110782894102    0.010508                 1553.34666926316
0.002119409858898647      0.001354493751023814     0.010508                 1408.5632741361915
0.0021536512734711653     0.0013698859485728552    0.010508                 1072.4435549999162
0.002125179928666599      0.0013912686213072589    0.010508000000000002     915.6837866739901
0.002159421343239117      0.0014066608188563002    0.010508                 599.6878672388882
0.002073628304790225      0.0012655518129078827    0.010508                 2782.179830819411
0.0020793983745581767     0.0013023266831913276    0.010508                 2274.400167662633
0.0020851684443261285     0.0013391015534747726    0.010508                 1750.8091057635324
0.0020909385140940803     0.0013758764237582176    0.010508                 1234.7480442286114
0.002045156959985658      0.0012869344856422861    0.010508                 2672.164995112657
0.0020509270297536103     0.0013237093559257311    0.010508                 2103.0112359806253
0.002056697099521562      0.0013604842262091763    0.010508                 1563.7686003729855
0.0020166856151810917     0.0013083171583766896    0.010508                 2535.685139525264
0.002022455684949044      0.0013450920286601348    0.010508                 1902.7454551071107
0.0019882142703765253     0.0013296998311110933    0.010508                 2372.7402640572336
0.0019264200583653246     0.0013411464260957707    0.010508000000000002     2476.448941550428
0.001904640786556816      0.0013684560317262688    0.010508000000000002     1760.4151061687585
0.0018828615147483071     0.0013957656373567665    0.010508                 1200.1461082204323
0.0018610822429397985     0.0014230752429872646    0.010508                 619.4107580992861
0.0018393029711312899     0.0014503848486177623    0.010508000000000002     18.209055805318485
0.001817523699322781      0.0014776944542482604    0.010508000000000002     -594.4235865154733
0.0018930971911586903     0.0013312103483460443    0.010508                 2748.2038093180036
0.0018713179193501814     0.0013585199539765422    0.010508                 2052.8856522214737
0.001849538647541673      0.00138582955960704      0.010508                 1473.6520464787852
0.0018277593757331642     0.001413139165237538     0.010508                 873.952088563276
0.0018059801039246553     0.0014404487708680358    0.010508                 256.3409928956845
0.001859774323952056      0.0013212742705963178    0.010508                 3006.296001527632
0.0018379950521435473     0.0013485838762268157    0.010508                 2335.2348414819135
0.0018162157803350387     0.0013758934818573136    0.010508                 1737.036627944863
0.0017944365085265299     0.0014032030874878115    0.010508                 1113.7359013959094
0.0018264514567454216     0.0013113381928465913    0.010508                 3250.7255181793134
0.001804672184936913      0.0013386477984770892    0.010508                 2607.462673950081
0.0017828929131284042     0.0013659574041075871    0.010508                 1977.7611389852002
0.0017931285895387873     0.0013014021150968649    0.010508                 3481.492359273048
0.0017713493177302787     0.001328711720727363     0.010508000000000002     2848.416705663557
0.001759805722332153      0.0012914660373471384    0.010508                 3717.559604423744
0.001982867638628301      0.0015626552258196102    0.010508000000000002     -2552.7900948500355
0.001955060078270195      0.001559358789894977     0.010508000000000002     -2547.44928173551
0.001969822620387058      0.0015905916984629348    0.010508                 -3163.2860208773727
0.0019420150600289521     0.0015872952625383013    0.010508                 -3170.7569590607795
0.0019567776021458157     0.001618528171106259     0.010508                 -3786.8443603000046
0.0019289700417877095     0.0016152317351816256    0.010508                 -3806.196354185885
0.0019437325839045732     0.0016464646437495834    0.010508                 -4423.465113117929
0.001915925023546467      0.00164316820782495      0.010508000000000002     -4453.767467110827
0.0019306875656633304     0.0016744011163929077    0.010508                 -5073.148279331146
0.0019028800053052244     0.0016711046804682743    0.010508000000000002     -5114.299373909285
0.001917642547422088      0.001702337589036232     0.010508                 -5828.380193483547
0.0019272525179120886     0.0015560623539703433    0.010508                 -2530.652273418512
0.0019142074996708462     0.0015839988266136676    0.010508                 -3164.4962525938945
0.0019011624814296035     0.001611935299256992     0.010508                 -3810.4719495691133
0.0018881174631883609     0.0016398717719003162    0.010508                 -4466.8467933055845
0.0018994449575539824     0.0015527659180457096    0.010508                 -2503.648637523441
0.00188639993931274       0.0015807023906890339    0.010508                 -3148.028918548937
0.0018733549210714973     0.0016086388633323582    0.010508                 -3801.4415794133047
0.0018716373971958764     0.001549469482121076     0.010508                 -2466.438374050297
0.0018585923789546338     0.0015774059547644004    0.010508                 -3118.0837322324464
0.0018438298368377703     0.0015461730461964426    0.010508000000000002     -2416.773251763009
0.0018842477543880528     0.0017021733890022076    0.010508000000000002     -6003.419667120816
0.0018694852122711895     0.0016709404804342498    0.010508000000000002     -5246.287888668878
0.0018508529613540181     0.001702009188968183     0.010508                 -6146.650694453305
0.0018360904192371544     0.0016707762804002249    0.010508                 -5363.221471148248
0.001817458168319983      0.0017018449889341582    0.010508                 -6272.874218289711
0.0018026956262031197     0.0016706120803662004    0.010508                 -5465.9291974210855
0.001784063375285948      0.0017016807889001337    0.010508                 -6382.090238630035
0.0017693008331690846     0.001670447880332176     0.010508000000000002     -5554.411067487384
0.0017506685822519133     0.0017015165888661092    0.010508                 -6474.2987554742795
0.0017359060401350497     0.0016702836802981514    0.010508000000000002     -5634.495539720339
0.0017172737892178782     0.0017013523888320845    0.010508                 -6553.672572715099
0.0018547226701543258     0.0016397075718662917    0.010508                 -4574.175201383481
0.001821327877120291      0.0016395433718322673    0.010508                 -4669.010324293425
0.0017879330840862562     0.0016393791717982426    0.010508                 -4749.619590996831
0.0017545382910522209     0.0016392149717642179    0.010508                 -4821.17138896912
0.0018399601280374624     0.0016084746632983337    0.010508                 -3885.304760999392
0.0018065653350034276     0.0016083104632643092    0.010508                 -3958.041424339905
0.0017731705419693925     0.0016081462632302845    0.010508                 -4020.1945753209093
0.001825197585920599      0.001577241754730376     0.010508                 -3179.676567516607
0.0017918027928865638     0.0015770775546963512    0.010508                 -3231.5650987757094
0.0018104350438037354     0.001546008846162418     0.010508000000000002     -2455.2829593335177
0.0016111111111111113     0.0019                   0.010508                 -9077.119512100924
0.0016288048907955725     0.0018668920648053475    0.010508000000000002     -8666.362802035961
0.0016481481481481486     0.0018999999999999998    0.010508000000000002     -8995.021174082047
0.0016658419278326093     0.0018668920648053475    0.010508000000000002     -8587.284918862426
0.0016464986704800336     0.001833784129610695     0.010508                 -8261.027677664606
0.0016835357075170704     0.0018337841296106948    0.010508                 -8178.7609344067805
0.0016641924501644948     0.0018006761944160423    0.010508                 -7855.654290126384
0.0017012294872015316     0.001800676194416042     0.010508                 -7769.449220715111
0.001681886229848956      0.0017675682592213898    0.010508                 -7450.242639421294
0.0017189232668859927     0.0017675682592213898    0.010508000000000002     -7359.349777787416
0.001699580009533417      0.001734460324026737     0.010508                 -7044.792725549339
0.0017366170465704543     0.001734460324026737     0.010508000000000002     -6955.6681232604
0.0016851851851851854     0.0019                   0.010508                 -8901.671972339616
0.0017028789648696463     0.0018668920648053473    0.010508                 -8487.702571040547
0.0017205727445541075     0.0018337841296106948    0.010508                 -8072.945440505453
0.0017382665242385688     0.0018006761944160423    0.010508                 -7657.400580734335
0.0017559603039230297     0.0017675682592213895    0.010508                 -7252.782548154823
0.0017222222222222222     0.0018999999999999998    0.010508                 -8785.679536370464
0.0017399160019066834     0.0018668920648053473    0.010508                 -8365.476988991944
0.0017576097815911445     0.0018337841296106948    0.010508                 -7944.486712377404
0.0017753035612756056     0.001800676194416042     0.010508                 -7536.017082096783
0.0017592592592592595     0.0018999999999999998    0.010508                 -8647.04386617459
0.0017769530389437206     0.0018668920648053473    0.010508                 -8220.608172716624
0.0017946468186281815     0.0018337841296106946    0.010508                 -7805.371725086271
0.0017962962962962963     0.0018999999999999998    0.010508                 -8485.764961751995
0.0018139900759807574     0.001866892064805347     0.010508000000000002     -8060.846477123294
0.0018333333333333333     0.0018999999999999996    0.010508                 -8302.932141103864
0.001903591011740629      0.0017352813241968599    0.010508000000000002     -6320.2130030176
0.0018701962187065943     0.0017351171241628358    0.010508000000000002     -6490.128980294869
0.00188953947605917       0.0017682250593574881    0.010508                 -6712.0583994309945
0.0018561446830251348     0.0017680608593234632    0.010508                 -6878.93524681387
0.0018754879403777105     0.001801168794518116     0.010508                 -7106.307477346378
0.0018420931473436758     0.0018010045944840914    0.010508                 -7271.615310943062
0.0018614364046962515     0.0018341125296787437    0.010508                 -7502.960236763748
0.0018280416116622168     0.0018339483296447192    0.010508000000000002     -7668.169172682439
0.0018473848690147925     0.0018670562648393718    0.010508                 -7902.016677683106
0.001836801425672559      0.0017349529241288107    0.010508                 -6637.998871623867
0.0018227498899911        0.001767896659289439     0.010508                 -7027.245016855692
0.0018086983543096407     0.0018008403944500667    0.010508                 -7420.364959697707
0.001803406632638524      0.0017347887240947864    0.010508                 -6766.079612167237
0.001789355096957065      0.0017677324592554142    0.010508                 -7155.765636111886
0.001770011839604489      0.0017346245240607617    0.010508                 -6874.371201924981
0.0016830261444154514     0.0016992809920109227    0.010508000000000002     -6572.782583127522
0.00166533236473099       0.0017323889272055754    0.010508000000000002     -7074.8490034364595
0.001647638585046529      0.0017654968624002277    0.010508                 -7478.866721375774
0.0016299448053620678     0.0017986047975948804    0.010508                 -7883.595642217378
0.0016122510256776066     0.0018317127327895331    0.010508000000000002     -8289.035765961273
0.0015945572459931457     0.0018648206679841854    0.010508000000000002     -8694.39342512215
0.0016487784996130246     0.001697209595189761     0.010508                 -6581.999287685896
0.001631084719928563      0.0017303175303844134    0.010508                 -7099.157123561279
0.001613390940244102      0.001763425465579066     0.010508                 -7500.946757780266
0.0015956971605596412     0.0017965334007737186    0.010508                 -7903.447594901542
0.0015780033808751796     0.001829641335968371     0.010508                 -8301.816930705212
0.0016145308548105976     0.001695138198368599     0.010508                 -6583.82699683234
0.0015968370751261365     0.0017282461335632517    0.010508                 -7112.175507936488
0.0015791432954416753     0.0017613540687579044    0.010508                 -7511.7370584351465
0.0015614495157572142     0.0017944620039525567    0.010508                 -7905.0862141017
0.0015802832100081706     0.0016930668015474374    0.010508                 -6578.265710566855
0.0015625894303237097     0.0017261747367420899    0.010508                 -7113.904156562086
0.0015448956506392483     0.0017592826719367424    0.010508                 -7504.201275311607
0.0015460355652057438     0.0016909954047262755    0.010508                 -6565.3154288894375
0.001528341785521283      0.0017241033399209283    0.010508000000000002     -7099.162114334935
0.001511787920403317      0.0016889240079051137    0.010508                 -6537.769207065486
0.0017030705492511004     0.0016660136171781138    0.010508000000000002     -5581.750084685707
0.0016688229044486734     0.0016639422203569522    0.010508000000000002     -5571.284229579959
0.0016345752596462469     0.00166187082353579      0.010508                 -5553.429132863049
0.0016003276148438199     0.0016597994267146285    0.010508                 -5532.085781071886
0.0015660799700413929     0.0016577280298934664    0.010508000000000002     -5507.25417420648
0.0015318323252389663     0.0016556566330723048    0.010508000000000002     -5478.786890882642
0.0016888673092843227     0.001630674845524143     0.010508                 -4682.969850921343
0.0016546196644818957     0.001628603448702981     0.010508                 -4661.0567587677
0.001620372019679469      0.0016265320518818191    0.010508                 -4633.449360062276
0.0015861243748770421     0.0016244606550606575    0.010508                 -4602.353706282608
0.0015518767300746151     0.0016223892582394954    0.010508                 -4573.413194692599
0.001674664069317545      0.0015953360738701718    0.010508                 -3775.8726995192483
0.001640416424515118      0.0015932646770490102    0.010508                 -3743.340265418837
0.0016061687797126914     0.0015911932802278484    0.010508                 -3705.9805647249054
0.0015719211349102644     0.0015891218834066865    0.010508                 -3674.413399331719
0.0016604608293507672     0.0015599973022162013    0.010508                 -2860.45863047942
0.0016262131845483402     0.0015579259053950393    0.010508                 -2818.1347495333694
0.0015919655397459132     0.0015558545085738774    0.010508                 -2781.7875047999996
0.0016462575893839892     0.0015246585305622301    0.010508                 -1936.727643801862
0.0016120099445815625     0.0015225871337410683    0.010508000000000002     -1895.5355110974433
0.0016320543494172115     0.0014893197589082594    0.010508                 -898.1704693032549
0.0017962318038369576     0.0015106700745084471    0.010508000000000002     -1436.0385670942678
0.0017775995529197863     0.0015417387830423805    0.010508000000000002     -2351.363504345214
0.0017589673020026145     0.0015728074915763138    0.010508                 -3140.7628562375207
0.0017403350510854436     0.0016038762001102471    0.010508                 -3941.6435725022193
0.0017217028001682718     0.0016349449086441805    0.010508000000000002     -4754.005653139311
0.0017633963129530085     0.0015064000113884097    0.010508                 -1321.9900752467565
0.001744764062035837      0.0015374687199223428    0.010508                 -2248.5439805682477
0.0017261318111186656     0.0015685374284562762    0.010508                 -3047.802555821045
0.0017074995602014943     0.0015996061369902095    0.010508                 -3858.5424954462337
0.001730560822069059      0.0015021299482683719    0.010508                 -1212.3394934941407
0.0017119285711518877     0.0015331986568023054    0.010508                 -2144.81672640101
0.0016932963202347163     0.0015642673653362387    0.010508                 -2953.9345250142974
0.00169772533118511       0.0014978598851483347    0.010508                 -1107.0868218364244
0.0016790930802679386     0.001528928593682268     0.010508                 -2040.181741843504
0.0016648898403011608     0.0014935898220282968    0.010508                 -1006.232060273604
0.001410283944939265      0.0014956970895976896    0.010508                 -1068.912819696421
0.001447245679018923      0.0014946342011494512    0.010508000000000002     -1001.6832030629769
0.0014272012741832736     0.00152790157598226      0.010508000000000002     -2044.9085484135155
0.0014641630082629317     0.0015268386875340219    0.010508000000000002     -2000.8737428773434
0.0014842074130985807     0.001493571312701213     0.010508                 -945.7309927683067
0.0015011247423425893     0.0015257757990857833    0.010508                 -1958.9282065949824
0.0015211691471782383     0.0014925084242529744    0.010508                 -906.7449962163287
0.0015380864764222468     0.001524712910637545     0.010508                 -1929.0725392019046
0.001558130881257896      0.0014914455358047362    0.010508                 -884.725213407044
0.0015750482105019047     0.001523650022189307     0.010508000000000002     -1911.3067406981081
0.001595092615337554      0.0014903826473564976    0.010508                 -879.6716443404512
0.0014441186034272824     0.001560106062366831     0.010508                 -2906.591493522318
0.00148108033750694       0.0015590431739185924    0.010508                 -2867.357977578604
0.001518042071586598      0.0015579802854703542    0.010508                 -2830.3328704128135
0.0015550038056662556     0.0015569173970221158    0.010508                 -2805.397632136305
0.0014610359326712912     0.0015923105487514015    0.010508                 -3771.459461776967
0.0014979976667509488     0.0015912476603031633    0.010508                 -3735.8136769158773
0.0015349594008306068     0.001590184771854925     0.010508                 -3703.7089988666557
0.0014779532619152997     0.0016245150351359722    0.010508                 -4639.512453177465
0.0015149149959949575     0.0016234521466877338    0.010508                 -4606.2408408891615
0.0014948705911593085     0.001656719521520543     0.010508                 -5510.75046772381
0.001784688208438832      0.0014734243911282228    0.010508000000000002     -453.5536249550449
0.0017518527175548826     0.0014691543280081851    0.010508                 -331.4226261206806
0.0017190172266709335     0.001464884264888148     0.010508                 -218.9951778663813
0.0016861817357869842     0.0014606142017681103    0.010508000000000002     -116.27128019214852
0.0016533462449030351     0.0014563441386480727    0.010508000000000002     -13.748550518027809
0.0017731446130407062     0.0014361787077479982    0.010508                 397.4435190076508
0.0017403091221567571     0.001431908644627961     0.010508                 526.2872801188129
0.001707473631272808      0.0014276385815079234    0.010508                 645.4274906499074
0.0016746381403888585     0.0014233685183878857    0.010508                 754.8726139741665
0.0017616010176425808     0.001398933024367774     0.010508                 1254.3598145248507
0.0017287655267586317     0.0013946629612477364    0.010508                 1389.9163379128074
0.0016959300358746821     0.0013903928981276988    0.010508                 1507.6161140699417
0.001750057422244455      0.0013616873409875497    0.010508                 2117.1952615965524
0.0017172219313605058     0.001357417277867512     0.010508                 2244.481949769298
0.0017385138268463294     0.0013244416576073254    0.010508000000000002     2965.4701210722324
0.0018095945733537417     8.866953298527028E-4     0.010508                 2800.44028872627
0.0018291862650848198     9.216698392199453E-4     0.010508000000000002     3259.0658515511413
0.0017871178274837685     9.217640045899157E-4     0.010508000000000002     3210.6480961313077
0.0018067095192148466     9.567385139571582E-4     0.010508000000000002     3580.497718461801
0.0018487779568158978     9.56644348587188E-4      0.010508                 3605.3377463026636
0.0018263012109459241     9.917130233244005E-4     0.010508                 3929.3434652659816
0.0018683696485469756     9.916188579544303E-4     0.010508                 3917.6152884825547
0.0018458929026770024     0.0010266875326916433    0.010508                 4250.424035428642
0.0018879613402780536     0.0010265933673216728    0.010508                 4195.898478090817
0.0018654845944080802     0.0010616620420588856    0.010508000000000002     4543.739428949782
0.0019075530320091314     0.0010615678766889153    0.010508                 4440.187315127447
0.0018850762861391582     0.001096636551426128     0.010508000000000002     4795.555453646705
0.0019271447237402095     0.0010965423860561578    0.010508                 4676.471764253364
0.001764641081613795      9.568326793271286E-4     0.010508                 3563.610418558099
0.0017842327733448731     9.91807188694371E-4      0.010508                 3937.080476379826
0.0018038244650759512     0.0010267816980616136    0.010508                 4294.166900755848
0.0018234161568070292     0.001061756207428856     0.010508                 4623.488148490351
0.0018430078485381068     0.0010967307167960984    0.010508                 4929.129205210866
0.0017421643357438217     9.919013540643413E-4     0.010508                 3933.103883328421
0.0017617560274748997     0.001026875863431584     0.010508                 4311.299468892137
0.0017813477192059777     0.0010618503727988263    0.010508                 4676.626570840002
0.0018009394109370555     0.0010968248821660689    0.010508                 5033.125817000975
0.0017196875898738482     0.0010269700288015543    0.010508                 4319.128490442272
0.0017392792816049263     0.0010619445381687968    0.010508                 4703.154695998734
0.001758870973336004      0.0010969190475360391    0.010508                 5107.545289017035
0.0016972108440038748     0.0010620387035387671    0.010508                 4721.684239899654
0.0017168025357349528     0.0010970132129060096    0.010508000000000002     5152.387621259045
0.0016747340981339016     0.00109710737827598      0.010508                 5161.357507978369
0.0020966666159561663     0.0012017457872085893    0.010508000000000002     3277.943467893576
0.0020681952711515995     0.0012231284599429927    0.010508000000000002     3182.540678455145
0.002039723926347033      0.0012445111326773962    0.010508                 3117.2769283850384
0.002011252581542467      0.0012658938054118       0.010508                 3027.959987745165
0.0019827812367379004     0.0012872764781462036    0.010508000000000002     2914.5898565355224
0.001954309891933334      0.0013086591508806073    0.010508000000000002     2792.1887198663017
0.0020627622375129747     0.0011807051069781028    0.010508                 3623.758254583031
0.0020342908927084083     0.0012020877797125063    0.010508                 3540.5128642050026
0.002005819547903842      0.00122347045244691      0.010508                 3450.2244869350648
0.0019773482030992755     0.0012448531251813136    0.010508                 3335.8829190953584
0.001948876858294709      0.0012662357979157171    0.010508                 3204.3121393234733
0.0020288578590697834     0.0011596644267476165    0.010508                 3934.905543839057
0.002000386514265217      0.0011810470994820202    0.010508                 3872.9941118327574
0.0019719151694606507     0.0012024297722164237    0.010508                 3757.681107362987
0.0019434438246560843     0.0012238124449508274    0.010508                 3616.7460532110326
0.001994953480626592      0.0011386237465171303    0.010508                 4211.385335661654