% Model:              stripline_filter_simple_decomp_new_mesh.mph
% Version:            COMSOL 6.1.0.252
% Date:               May 4 2023, 17:25
% Dimension:          3
% Nodes:              2539
% Expressions:        1
% Description:        Surface
% X                       Y                        Z                        Power outflow, time average
0.0025                    0.0012                   0.010508                 1046.454630762755
0.0024698101349522597     0.0012209727325653182    0.010508000000000002     2660.865671460423
0.0024680653412417963     0.0011827566901486716    0.010508000000000002     764.6204070093138
0.0024378754761940563     0.0012037294227139899    0.010508000000000002     2064.529630628106
0.0024396202699045197     0.0012419454651306364    0.010508                 5087.984181290861
0.002407685611146316      0.001224702155279308     0.010508                 4251.624701836239
0.0024094304048567798     0.0012629181976959547    0.010508                 8259.944357317518
0.002377495746098576      0.0012456748878446262    0.010508                 7232.516731063201
0.0023792405398090394     0.0012838909302612727    0.010508                 12074.09485707447
0.0023473058810508356     0.0012666476204099444    0.010508000000000002     10916.819953818898
0.0023490506747612994     0.001304863662826591     0.010508                 16427.784338095764
0.0023171160160030957     0.0012876203529752627    0.010508000000000002     14661.137619017081
0.002318860809713559      0.0013258363953919093    0.010508                 20377.729306083755
0.002436130682483593      0.0011655133802973433    0.010508                 2060.4464360842285
0.0024059408174358526     0.0011864861128626615    0.010508                 2966.6203721046286
0.0023757509523881126     0.0012074588454279796    0.010508                 4771.373954038104
0.0023455610873403723     0.001228431577993298     0.010508                 7361.958735423372
0.002315371222292632      0.0012494043105586161    0.010508                 10428.914994938194
0.002404196023725389      0.0011482700704460148    0.010508                 4881.314113677622
0.002374006158677649      0.0011692428030113332    0.010508                 5434.522970837652
0.002343816293629909      0.0011902155355766513    0.010508                 6816.413860617605
0.002313626428582169      0.0012111882681419695    0.010508                 8966.276609636381
0.0023722613649671855     0.0011310267605946864    0.010508                 9172.05145005276
0.0023420714999194455     0.0011519994931600047    0.010508                 9438.588816032063
0.002311881634871705      0.001172972225725323     0.010508                 10414.456046219462
0.002340326706208982      0.0011137834507433581    0.010508                 14877.48645547291
0.0023101368411612417     0.0011347561833086764    0.010508000000000002     14914.686887795264
0.0023083920474507784     0.0010965401408920298    0.010508                 22196.620131766173
0.0021305709943993576     0.0012227864674390753    0.010508                 34026.36499236689
0.0021602078365745947     0.0012017454130145678    0.010508000000000002     30402.04816107373
0.002161952630285058      0.0012399614554312144    0.010508000000000002     25578.355566777303
0.0021915894724602947     0.0012189204010067066    0.010508000000000002     22264.888732750565
0.0021898446787498313     0.0011807043585900603    0.010508                 27280.14604995967
0.0022212263146355314     0.001197879346582199     0.010508                 19682.817688444276
0.002219481520925068      0.0011596633041655526    0.010508                 24816.759648591076
0.002250863156810768      0.0011768382921576916    0.010508                 17562.104892357394
0.0022491183631003046     0.0011386222497410448    0.010508                 23039.967200796054
0.002280499998986005      0.001155797237733184     0.010508000000000002     15946.612952953896
0.0022787552052755417     0.0011175811953165376    0.010508                 21977.8469504027
0.002193334266170758      0.0012571364434233534    0.010508                 20468.805257186432
0.0022229711083459947     0.0012360953889988457    0.010508                 17465.286877646064
0.0022526079505212314     0.001215054334574338     0.010508                 14673.777024592106
0.0022822447926964685     0.0011940132801498307    0.010508                 12327.999289775185
0.0022247159020564585     0.0012743114314154923    0.010508                 17368.716821301052
0.002254352744231695      0.0012532703769909848    0.010508                 14504.140597497886
0.002283989586406932      0.001232229322566477     0.010508                 11515.208818616831
0.0022560975379421586     0.0012914864194076311    0.010508                 16245.46263133916
0.0022857343801173952     0.0012704453649831238    0.010508                 13384.177859893654
0.002287479173827859      0.0013086614073997702    0.010508                 17066.415059518687
0.0023490506747612994     0.0013437525517154799    0.010508000000000002     23802.639009615137
0.0023792405398090394     0.0013227798191501618    0.010508000000000002     19074.06928282309
0.0024094304048567798     0.0013018070865848433    0.010508                 14796.23893789682
0.0024396202699045197     0.0012808343540195253    0.010508                 10932.26079537846
0.00246981013495226       0.0012598616214542072    0.010508000000000002     7597.051775709751
0.0025                    0.0012388888888888888    0.010508000000000002     4905.528799332483
0.0023792405398090394     0.0013616687080390507    0.010508                 28266.648012844315
0.0024094304048567798     0.0013406959754737324    0.010508                 23462.17816301628
0.0024396202699045197     0.0013197232429084142    0.010508                 18992.237887841915
0.0024698101349522597     0.001298750510343096     0.010508                 14891.915242560299
0.0024999999999999996     0.0012777777777777776    0.010508                 11276.127147613184
0.0024094304048567798     0.001379584864362621     0.010508                 33350.86189437617
0.0024396202699045197     0.001358612131797303     0.010508                 28593.15846006621
0.0024698101349522597     0.001337639399231985     0.010508                 23972.49592117049
0.0025                    0.0013166666666666665    0.010508                 19677.216439652406
0.0024396202699045197     0.001397501020686192     0.010508                 38946.11771555767
0.0024698101349522597     0.0013765282881208736    0.010508                 34362.867346441606
0.0024999999999999996     0.0013555555555555554    0.010508                 29632.870210351353
0.0024698101349522597     0.0014154171770097625    0.010508                 44943.252537735774
0.0025                    0.0013944444444444442    0.010508000000000002     40667.16199461127
0.0025                    0.0014333333333333331    0.010508                 51982.41610293608
0.0024726941550544347     0.001451308863773799     0.010508000000000002     53185.48915651397
0.002442504290006695      0.001433392707450228     0.010508000000000002     46388.74079093513
0.00244538831010887       0.0014692843942142645    0.010508                 54319.95722019943
0.0024151984450611294     0.0014513682378906939    0.010508                 48312.14776794686
0.002418082465163305      0.0014872599246547303    0.010508                 55269.599229066305
0.0023878926001155644     0.0014693437683311595    0.010508                 50095.833190897305
0.00239077662021774       0.0015052354550951959    0.010508                 56079.06873038716
0.0023605867551699995     0.0014873192987716252    0.010508000000000002     51766.007297451884
0.0023634707752721745     0.0015232109855356614    0.010508                 56793.01927143451
0.0023332809102244345     0.0015052948292120908    0.010508000000000002     54444.47699519523
0.0023361649303266095     0.0015411865159761272    0.010508                 58882.82616067475
0.0024123144249589548     0.0014154765511266575    0.010508                 40822.485225196346
0.00238500858001339       0.0014334520815671233    0.010508                 42862.350632567504
0.002357702735067825      0.001451427612007589     0.010508                 44778.94584394158
0.002330396890122259      0.0014694031424480544    0.010508                 47050.646904842884
0.002382124559911215      0.0013975603948030869    0.010508                 35504.35578428378
0.0023548187149656495     0.0014155359252435527    0.010508                 37598.245840114825
0.002327512870020084      0.0014335114556840182    0.010508                 39587.74584232087
0.0023519346948634745     0.0013796442384795163    0.010508                 30548.535517972356
0.002324628849917909      0.0013976197689199818    0.010508                 32388.900123683372
0.002321744829815734      0.0013617280821559457    0.010508000000000002     25787.236064984434
0.002363470775272175      0.0015620998744245505    0.010508000000000002     57034.47803207247
0.00239077662021774       0.0015441243439840852    0.010508000000000002     55881.76040479528
0.002418082465163305      0.001526148813543619     0.010508                 56369.602014420365
0.00244538831010887       0.0015081732831031536    0.010508                 56758.78912531614
0.002472694155054435      0.0014901977526626878    0.010508000000000002     56986.22488060287
0.0025                    0.001472222222222222     0.010508000000000002     56988.81242340089
0.00239077662021774       0.0015830132328729738    0.010508                 55764.160063274394
0.002418082465163305      0.0015650377024325078    0.010508                 55876.11304767227
0.00244538831010887       0.0015470621719920424    0.010508                 56944.368260477044
0.0024726941550544355     0.0015290866415515767    0.010508                 57902.599959575346
0.0025                    0.0015111111111111109    0.010508                 58687.711288087536
0.002418082465163305      0.0016039265913213969    0.010508                 53980.78421083681
0.00244538831010887       0.0015859510608809313    0.010508                 55401.30175577761
0.0024726941550544355     0.0015679755304404655    0.010508                 57069.26822459427
0.0025000000000000005     0.0015499999999999997    0.010508                 58615.84216472739
0.00244538831010887       0.00162483994976982      0.010508                 51764.70897031894
0.0024726941550544355     0.0016068644193293544    0.010508                 54524.33378203369
0.0025000000000000005     0.0015888888888888886    0.010508                 56811.30915969451
0.002472694155054435      0.0016457533082182435    0.010508                 49196.29283727989
0.0025000000000000005     0.001627777777777778     0.010508000000000002     53312.216379363046
0.0025000000000000005     0.0016666666666666666    0.010508                 46319.38096919354
0.00235249314804445       0.0017192620913153804    0.010508                 45135.56748798658
0.0023497717784248104     0.0016895828287588383    0.010508000000000002     48173.53663208082
0.0023770776233703753     0.0017104961872072616    0.010508000000000002     41756.66960328033
0.002374356253750735      0.0016808169246507192    0.010508000000000002     46127.02156572049
0.00234705040880517       0.001659903566202296     0.010508                 51035.8368171645
0.002371634884131095      0.0016511376620941772    0.010508                 49782.90238471573
0.00234432903918553       0.001630224303645754     0.010508                 53697.59412390656
0.002368913514511455      0.0016214583995376348    0.010508                 53182.84477188094
0.0023416076695658896     0.0016005450410892116    0.010508                 56041.535081526075
0.002366192144891815      0.001591779136981093     0.010508000000000002     56200.76889224192
0.0023388862999462494     0.0015708657785326694    0.010508                 57950.38621924203
0.0024016620986963004     0.0017017302830991425    0.010508                 40680.7572280527
0.00239894072907666       0.0016720510205426003    0.010508                 45397.12507353014
0.0023962193594570204     0.001642371757986058     0.010508                 49559.103029901235
0.00239349798983738       0.001612692495429516     0.010508                 53391.21759988526
0.0024262465740222255     0.0016929643789910234    0.010508                 40549.835077661424
0.0024235252044025853     0.0016632851164344814    0.010508                 45508.11415449357
0.002420803834782945      0.0016336058538779393    0.010508                 50099.21565097714
0.0024508310493481502     0.0016841984748829043    0.010508                 41321.27590342959
0.0024481096797285104     0.0016545192123263623    0.010508                 46418.47278371328
0.0024754155246740754     0.0016754325707747856    0.010508                 42952.452456680316
0.0023770776233703753     0.0017493850760961504    0.010508000000000002     32763.771563694485
0.0024016620986963004     0.0017406191719880313    0.010508000000000002     29971.23293311811
0.0024262465740222255     0.0017318532678799123    0.010508                 29578.34767945816
0.0024508310493481502     0.0017230873637717936    0.010508                 30182.19397742316
0.002475415524674076      0.0017143214596636745    0.010508000000000002     31739.033354556697
0.0025000000000000005     0.0017055555555555556    0.010508000000000002     34205.127338402446
0.0024016620986963        0.0017795080608769202    0.010508                 22045.553524852163
0.002426246574022225      0.0017707421567688011    0.010508                 20153.67582750687
0.0024508310493481502     0.0017619762526606825    0.010508                 20211.973835373497
0.0024754155246740754     0.0017532103485525634    0.010508                 21291.6136672345
0.0025000000000000005     0.0017444444444444443    0.010508                 23348.856850633467
0.002426246574022225      0.0018096310456576902    0.010508                 13137.342309760497
0.0024508310493481502     0.0018008651415495711    0.010508                 12018.284359833862
0.0024754155246740754     0.0017920992374414525    0.010508                 12529.927978081701
0.0025000000000000005     0.0017833333333333334    0.010508                 14087.523692693321
0.0024508310493481502     0.0018397540304384602    0.010508                 6310.458360295037
0.002475415524674075      0.0018309881263303411    0.010508                 5863.957150075803
0.0025                    0.001822222222222222     0.010508                 6831.108727559469
0.002475415524674075      0.00186987701521923      0.010508                 1836.2221183313186
0.0025                    0.0018611111111111111    0.010508000000000002     1989.5928182093596
0.0025                    0.0019                   0.010508                 -14.04597425512913
0.001759805722332153      0.0012914660373471384    0.010508                 71764.67143891366
0.0017232038199168189     0.0012920593424217805    0.010508000000000002     74414.67164260178
0.0017456271182991112     0.0012590729275019454    0.010508000000000002     95726.99241474556
0.0017090252158837769     0.0012596662325765875    0.010508000000000002     96421.5993098822
0.0016866019175014845     0.0012926526474964228    0.010508                 76179.43610219484
0.0016724233134684425     0.0012602595376512296    0.010508                 99774.33832458181
0.0016500000150861502     0.0012932459525710647    0.010508                 77699.64623644674
0.0016358214110531084     0.0012608528427258717    0.010508                 102773.86980643077
0.0016133981126708159     0.0012938392576457068    0.010508                 78954.92098487055
0.001599219508637774      0.0012614461478005138    0.010508000000000002     105383.28402863347
0.0015767962102554817     0.001294432562720349     0.010508                 79924.87928697903
0.00156261760622244       0.001262039452875156     0.010508000000000002     107907.27721514001
0.0015401943078401474     0.001295025867794991     0.010508                 81728.497749269
0.0017314485142660694     0.0012266798176567523    0.010508                 119050.77889148795
0.0016948466118507349     0.0012272731227313944    0.010508                 121103.84279993933
0.0016582447094354007     0.0012278664278060365    0.010508                 125204.14595764244
0.0016216428070200666     0.0012284597328806788    0.010508                 128868.25249959546
0.001585040904604732      0.0012290530379553207    0.010508                 132790.5475221955
0.0017172699102330274     0.001194286707811559     0.010508                 146365.26500853285
0.001680668007817693      0.0011948800128862014    0.010508                 150215.17422269427
0.0016440661054023587     0.0011954733179608435    0.010508                 155067.68347762592
0.0016074642029870246     0.0011960666230354856    0.010508                 160781.01851770093
0.0017030913061999854     0.001161893597966366     0.010508                 177701.639842371
0.0016664894037846513     0.0011624869030410082    0.010508                 183785.85109572392
0.0016298875013693167     0.0011630802081156503    0.010508                 191675.1713523314
0.0016889127021669434     0.001129500488121173     0.010508                 213091.0924694931
0.0016523107997516093     0.001130093793195815     0.010508000000000002     225269.4871767618
0.0016747340981339016     0.00109710737827598      0.010508                 260562.83070581287
0.0014520683779920887     0.001096237057718057     0.010508                 298277.8432778112
0.0014891793313490575     0.0010963821111443775    0.010508000000000002     295222.0093778273
0.0014667560329667652     0.0011293685260642128    0.010508000000000002     248361.262269345
0.001503866986323734      0.0011295135794905332    0.010508000000000002     246595.9240748871
0.0015262902847060266     0.0010965271645706981    0.010508                 290741.5429286659
0.0015409779396807028     0.0011296586329168537    0.010508                 243167.35837760736
0.0015634012380629952     0.0010966722179970184    0.010508                 285290.0941859117
0.0015780888930376717     0.001129803686343174     0.010508                 239003.95830498057
0.001600512191419964      0.001096817271423339     0.010508                 278947.82344982633
0.0016151998463946405     0.0011299487397694948    0.010508000000000002     234160.77095281423
0.0016376231447769328     0.0010969623248496595    0.010508                 271794.89102066855
0.0014814436879414417     0.0011624999944103683    0.010508                 207528.92441292817
0.0015185546412984103     0.001162645047836689     0.010508                 205168.14545829914
0.0015556655946553793     0.0011627901012630094    0.010508                 201981.80015542958
0.0015927765480123481     0.0011629351546893298    0.010508                 198225.78073824462
0.0014961313429161182     0.001195631462756524     0.010508                 171039.71550087119
0.001533242296273087      0.0011957765161828447    0.010508                 168279.48159858267
0.0015703532496300558     0.001195921569609165     0.010508                 165422.51272667965
0.0015108189978907944     0.0012287629311026798    0.010508                 138948.54048956544
0.0015479299512477633     0.0012289079845290002    0.010508                 135962.2787497681
0.0015255066528654711     0.0012618943994488355    0.010508                 111310.30433540106
0.0015041086001332294     0.0012959317043370164    0.010508000000000002     82283.56730880275
0.001489420945158553      0.0012628002359908609    0.010508000000000002     111299.9533527421
0.001468022892426311      0.0012968375408790418    0.010508                 81013.75371277347
0.0014533352374516348     0.001263706072532886     0.010508                 109520.87861684343
0.0014319371847193929     0.0012977433774210671    0.010508                 79458.59874770512
0.0014172495297447166     0.0012646119090749114    0.010508                 107252.95356333362
0.0013958514770124747     0.0012986492139630923    0.010508                 77638.47031296356
0.0013811638220377984     0.0012655177456169368    0.010508000000000002     104522.13793159962
0.0013597657693055565     0.0012995550505051176    0.010508                 75573.73630791402
0.0013450781143308803     0.0012664235821589621    0.010508000000000002     102083.25830812463
0.0013236800615986386     0.001300460887047143     0.010508                 72097.81621671702
0.0014747332901838763     0.001229668767644705     0.010508                 137895.01836442185
0.001438647582476958      0.0012305746041867305    0.010508                 135402.70455357866
0.0014025618747700403     0.0012314804407287556    0.010508                 132337.7848198984
0.0013664761670631217     0.0012323862772707808    0.010508                 129542.10075677952
0.0014600456352092        0.0011965372992985494    0.010508                 168779.62304379078
0.0014239599275022818     0.0011974431358405748    0.010508                 165474.38333978402
0.0013878742197953636     0.0011983489723826       0.010508                 162179.23692728212
0.0014453579802345235     0.0011634058309523937    0.010508                 203876.30373209782
0.0014092722725276051     0.001164311667494419     0.010508                 199964.7724689946
0.001430670325259847      0.0011302743626062381    0.010508000000000002     242868.81303127913
0.0017168025357349528     0.0010970132129060096    0.010508000000000002     234587.94541090186
0.0017309811397679948     0.0011294063227512028    0.010508000000000002     193185.7116980018
0.0017588709733360043     0.0010969190475360394    0.010508                 212148.03719174303
0.001773049577369046      0.0011293121573812321    0.010508                 175735.70844311346
0.0018009394109370555     0.0010968248821660689    0.010508                 191059.2182073354
0.0018151180149700975     0.0011292179920112618    0.010508                 159150.3343685699
0.0018430078485381068     0.0010967307167960986    0.010508                 171491.4441805854
0.0018571864525711486     0.0011291238266412915    0.010508000000000002     143574.77815550915
0.0018850762861391582     0.001096636551426128     0.010508                 153614.67083440034
0.0018992548901722        0.0011290296612713213    0.010508000000000002     128458.4647578444
0.0019271447237402095     0.0010965423860561578    0.010508                 137144.83054751184
0.0017451597438010364     0.0011617994325963956    0.010508                 161686.84436967378
0.0017872281814020879     0.0011617052672264253    0.010508                 146324.6003996284
0.0018292966190031393     0.001161611101856455     0.010508                 131850.50772115897
0.0018713650566041904     0.0011615169364864847    0.010508                 117380.18013306845
0.0017593383478340786     0.0011941925424415888    0.010508                 133744.4321891575
0.0018014067854351299     0.0011940983770716185    0.010508                 120405.20807882615
0.0018434752230361813     0.0011940042117016482    0.010508                 106479.86096774912
0.0017735169518671204     0.001226585652286782     0.010508                 109326.35452104862
0.0018155853894681717     0.0012264914869168115    0.010508                 95843.15946713011
0.0017876955559001624     0.0012589787621319752    0.010508000000000002     85555.72783645583
0.0021391734391148975     0.0010384303219756498    0.010508                 66988.97998865209
0.002167376540504211      0.0010481152917950465    0.010508000000000002     57118.109414540566
0.002137739698328974      0.001069156346219554     0.010508000000000002     59776.1219079264
0.002165942799718288      0.001078841316038951     0.010508000000000002     50999.05279034277
0.0021955796418935245     0.0010578002616144432    0.010508                 49248.99755613861
0.002194145901107601      0.0010885262858583474    0.010508                 42618.325279495424
0.0022237827432828377     0.00106748523143384      0.010508                 41779.64313221061
0.0022223490024969148     0.0010982112556777441    0.010508                 34869.18657421958
0.0022519858446721514     0.0010771702012532364    0.010508                 34759.78978522969
0.002250552103886228      0.0011078962254971408    0.010508000000000002     27800.36288268643
0.002280188946061465      0.0010868551710726331    0.010508                 28239.181157668958
0.0021363059575430507     0.0010998823704634585    0.010508                 52912.84014652655
0.0021645090589323644     0.001109567340282855     0.010508                 44181.28872127985
0.002192712160321678      0.0011192523101022517    0.010508                 36350.966925075525
0.0022209152617109914     0.0011289372799216484    0.010508                 29203.210788996195
0.0021348722167571273     0.0011306083947073627    0.010508                 47072.10561609151
0.002163075318146441      0.0011402933645267592    0.010508                 38687.101885179014
0.0021912784195357547     0.001149978334346156     0.010508                 31465.553399766548
0.002133438475971204      0.0011613344189512669    0.010508                 42320.0259113824
0.0021616415773605176     0.0011710193887706634    0.010508                 34575.096835805234
0.002132004735185281      0.001192060443195171     0.010508                 38722.708627160275
0.002103835319885783      0.0010481156659890678    0.010508000000000002     73798.39340337666
0.0021024015790998595     0.0010788416902329722    0.010508000000000002     65907.61368528096
0.002100967838313936      0.0011095677144768764    0.010508                 59710.97679925292
0.0020995340975280127     0.0011402937387207806    0.010508                 54272.583143325886
0.0020981003567420893     0.0011710197629646848    0.010508000000000002     49666.04335325697
0.0020966666159561663     0.0012017457872085893    0.010508000000000002     44384.35874770419
0.0020684972006566682     0.001057801010002486     0.010508                 81788.87988533953
0.002067063459870745      0.00108852703424639      0.010508                 73396.71554231897
0.0020656297190848215     0.0011192530584902944    0.010508                 67392.84761498553
0.002064195978298898      0.0011499790827341986    0.010508                 62125.58132273752
0.0020627622375129747     0.0011807051069781028    0.010508                 57142.64324771823
0.0020331590814275536     0.0010674863540159037    0.010508                 91500.93124654033
0.00203172534064163       0.0010982123782598081    0.010508                 82113.9341182687
0.002030291599855707      0.0011289384025037123    0.010508                 76282.87040070497
0.0020288578590697834     0.0011596644267476165    0.010508                 72153.90898212505
0.001997820962198439      0.0010771716980293219    0.010508                 103026.58826781972
0.0019963872214125156     0.001107897722273226     0.010508                 92116.29704302209
0.001994953480626592      0.0011386237465171303    0.010508                 89405.36538177551
0.0019624828429693243     0.0010868570420427398    0.010508                 116457.89173001828
0.001961049102183401      0.001117583066286644     0.010508000000000002     108884.22187752047
0.0018095945733537417     8.866953298527028E-4     0.010508                 194829.06200759523
0.0018291862650848198     9.216698392199453E-4     0.010508000000000002     179261.7460883754
0.0017871178274837685     9.217640045899157E-4     0.010508000000000002     211914.5697696241
0.0018067095192148466     9.567385139571582E-4     0.010508000000000002     193336.1271387638
0.0018487779568158978     9.56644348587188E-4      0.010508                 168004.3266080512
0.0018263012109459241     9.917130233244005E-4     0.010508                 179821.13641995503
0.0018683696485469756     9.916188579544303E-4     0.010508                 158499.2109377766
0.0018458929026770024     0.0010266875326916433    0.010508                 168461.95751695748
0.0018879613402780536     0.0010265933673216728    0.010508                 150598.62932833272
0.0018654845944080802     0.0010616620420588856    0.010508000000000002     159140.5310350375
0.0019075530320091314     0.0010615678766889153    0.010508                 144154.8120305004
0.001764641081613795      9.568326793271286E-4     0.010508                 221410.31326058618
0.0017842327733448731     9.91807188694371E-4      0.010508                 204131.41386740224
0.0018038244650759512     0.0010267816980616136    0.010508                 190885.08334369006
0.0018234161568070292     0.001061756207428856     0.010508                 179830.20837204298
0.0017421643357438217     9.919013540643413E-4     0.010508                 231349.111648201
0.0017617560274748997     0.001026875863431584     0.010508                 215586.64866723947
0.0017813477192059777     0.0010618503727988263    0.010508                 202784.36392232653
0.0017196875898738482     0.0010269700288015543    0.010508                 241869.80360860692
0.0017392792816049263     0.0010619445381687968    0.010508                 227808.2749212124
0.0016972108440038748     0.0010620387035387671    0.010508                 253111.22781794285
0.0018465858646102306     8.830114705018941E-4     0.010508000000000002     160466.2631397862
0.0018661775563413086     9.179859798691365E-4     0.010508000000000002     149748.6833276584
0.0018835771558667197     8.793276111510853E-4     0.010508                 134750.23501402923
0.0019031688475977973     9.143021205183277E-4     0.010508                 128185.25808389613
0.0019205684471232084     8.756437518002765E-4     0.010508                 113834.8706496629
0.0019401601388542862     9.106182611675189E-4     0.010508                 110655.89421934263