% Model:              stripline_filter_simple_decomp_new_mesh.mph
% Version:            COMSOL 6.1.0.252
% Date:               May 3 2023, 13:17
% Dimension:          3
% Nodes:              2539
% Expressions:        1
% Description:        Surface
% X                       Y                        Z                        real(emw.Ez)
0.0019959126568695434     0.001534718753176286     0.010508                 -2773.629260995399
0.0019681050965114372     0.0015314223172516522    0.010508000000000002     -2928.0437474097926
0.001989884368319946      0.0015041127116211543    0.010508000000000002     -2880.15965820603
0.00196207680796184       0.001500816275696521     0.010508000000000002     -3082.77672003436
0.0019402975361533313     0.001528125881327019     0.010508                 -3110.4517914163425
0.0019342692476037337     0.0014975198397718871    0.010508                 -3265.4045268252194
0.001912489975795225      0.0015248294454023852    0.010508                 -3289.982467663449
0.0019064616872456277     0.0014942234038472536    0.010508                 -3444.8401058282243
0.001884682415437119      0.0015215330094777517    0.010508                 -3466.6357761511103
0.0018786541268875215     0.0014909269679226201    0.010508000000000002     -3621.0834570433717
0.0018568748550790127     0.0015182365735531183    0.010508                 -3640.4117168793255
0.0018508465665294154     0.0014876305319979867    0.010508000000000002     -3685.8014009800336
0.0018290672947209067     0.0015149401376284846    0.010508                 -3738.4248991745467
0.0019838560797703487     0.001473506670066023     0.010508                 -2963.988396105933
0.0019560485194122425     0.0014702102341413894    0.010508                 -3137.91326439046
0.0019282409590541364     0.001466913798216756     0.010508                 -3317.4742614685715
0.0019004333986960302     0.0014636173622921225    0.010508                 -3493.843030758826
0.001872625838337924      0.0014603209263674886    0.010508                 -3590.882413064207
0.001977827791220751      0.0014429006285108913    0.010508                 -2996.1891018076103
0.0019500202308626452     0.0014396041925862578    0.010508                 -3134.76931259723
0.001922212670504539      0.0014363077566616244    0.010508                 -3311.2634999625916
0.0018944051101464328     0.0014330113207369909    0.010508                 -3441.2532541942937
0.0019717995026711536     0.00141229458695576      0.010508                 -2976.7617753110635
0.0019439919423130476     0.0014089981510311265    0.010508                 -3073.344864654665
0.0019161843819549414     0.0014057017151064928    0.010508                 -3236.9139243702884
0.0019657712141215563     0.0013816885454006286    0.010508                 -2905.706416616291
0.0019379636537634503     0.001378392109475995     0.010508000000000002     -2977.8644235921975
0.001959742925571959      0.001351082503845497     0.010508                 -2786.7733773617306
0.0020241257828924643     0.0015195049091701958    0.010508000000000002     -2671.61088740206
0.002018097494342867      0.0014888988676150644    0.010508000000000002     -2729.9454766199783
0.0020120692057932696     0.0014582928260599328    0.010508                 -2818.8078625142257
0.0020060409172436722     0.0014276867845048015    0.010508                 -2862.6946801613594
0.002000012628694075      0.0013970807429496699    0.010508000000000002     -2861.605929561377
0.0019939843401444775     0.0013664747013945385    0.010508000000000002     -2817.8934871123665
0.0020523389089153856     0.001504291065164106     0.010508                 -2520.31149447814
0.002046310620365788      0.0014736850236089743    0.010508                 -2576.7270965561697
0.0020402823318161904     0.0014430789820538427    0.010508                 -2644.997746613717
0.002034254043266593      0.0014124729404987111    0.010508                 -2668.292828424147
0.0020282257547169953     0.0013818668989435796    0.010508                 -2667.3922497802064
0.002080552034938306      0.0014890772211580156    0.010508                 -2347.6957634032888
0.0020745237463887086     0.001458471179602884     0.010508                 -2403.7074907649976
0.0020684954578391113     0.0014278651380477529    0.010508                 -2451.386404985841
0.002062467169289514      0.0013972590964926213    0.010508                 -2490.2247695331093
0.0021087651609612273     0.0014738633771519255    0.010508                 -2153.763694177507
0.00210273687241163       0.0014432573355967942    0.010508                 -2210.886659246458
0.002096708583862032      0.0014126512940416626    0.010508                 -2286.391046371075
0.002136978286984148      0.0014586495331458354    0.010508                 -1938.5152868007954
0.002130949998434551      0.0014280434915907038    0.010508000000000002     -2055.8910802941045
0.002165191413007069      0.0014434356891397453    0.010508                 -1795.3038056840735
0.0021305709943993576     0.0012227864674390753    0.010508                 -1194.4718220672255
0.0021363410641673094     0.0012595613377225205    0.010508000000000002     -1328.692289626063
0.0021020996495947912     0.001244169140173479     0.010508000000000002     -1487.9572801932995
0.002107869719362743      0.001280944010456924     0.010508000000000002     -1673.4645712445083
0.0021421111339352617     0.0012963362080059652    0.010508                 -1507.4975428283576
0.002113639789130695      0.001317718880740369     0.010508                 -1841.3481931526726
0.002147881203703213      0.0013331110782894102    0.010508                 -1653.3258325309575
0.002119409858898647      0.001354493751023814     0.010508                 -1970.6515650125855
0.0021536512734711653     0.0013698859485728552    0.010508                 -1766.177158733865
0.002125179928666599      0.0013912686213072589    0.010508000000000002     -2061.374686824247
0.002159421343239117      0.0014066608188563002    0.010508                 -1846.0515214370785
0.002073628304790225      0.0012655518129078827    0.010508                 -1780.9067353504388
0.0020793983745581767     0.0013023266831913276    0.010508                 -1971.748282951736
0.0020851684443261285     0.0013391015534747726    0.010508                 -2131.3485237199266
0.0020909385140940803     0.0013758764237582176    0.010508                 -2252.368514439866
0.002045156959985658      0.0012869344856422861    0.010508                 -2065.372193522364
0.0020509270297536103     0.0013237093559257311    0.010508                 -2262.3063188984697
0.002056697099521562      0.0013604842262091763    0.010508                 -2413.6231785266864
0.0020166856151810917     0.0013083171583766896    0.010508                 -2341.353654709076
0.002022455684949044      0.0013450920286601348    0.010508                 -2545.1386790847087
0.0019882142703765253     0.0013296998311110933    0.010508                 -2608.8511189105757
0.0019264200583653246     0.0013411464260957707    0.010508000000000002     -2872.58790807936
0.001904640786556816      0.0013684560317262688    0.010508000000000002     -3188.774551093711
0.0018828615147483071     0.0013957656373567665    0.010508                 -3439.587220145198
0.0018610822429397985     0.0014230752429872646    0.010508                 -3636.3186518001976
0.0018393029711312899     0.0014503848486177623    0.010508000000000002     -3778.9688460587095
0.001817523699322781      0.0014776944542482604    0.010508000000000002     -3920.300582379238
0.0018930971911586903     0.0013312103483460443    0.010508                 -3023.1727642042365
0.0018713179193501814     0.0013585199539765422    0.010508                 -3362.662719316085
0.001849538647541673      0.00138582955960704      0.010508                 -3639.3213776073826
0.0018277593757331642     0.001413139165237538     0.010508                 -3861.8987985021936
0.0018059801039246553     0.0014404487708680358    0.010508                 -4049.063276873814
0.001859774323952056      0.0013212742705963178    0.010508                 -3161.187088609662
0.0018379950521435473     0.0013485838762268157    0.010508                 -3523.75343128875
0.0018162157803350387     0.0013758934818573136    0.010508                 -3826.2580788198597
0.0017944365085265299     0.0014032030874878115    0.010508                 -4052.174888744268
0.0018264514567454216     0.0013113381928465913    0.010508                 -3286.6308812956368
0.001804672184936913      0.0013386477984770892    0.010508                 -3672.0466870117057
0.0017828929131284042     0.0013659574041075871    0.010508                 -3929.6354179905957
0.0017931285895387873     0.0013014021150968649    0.010508                 -3399.504142262159
0.0017713493177302787     0.001328711720727363     0.010508000000000002     -3681.444864612802
0.001759805722332153      0.0012914660373471384    0.010508                 -3404.6638797117703
0.001982867638628301      0.0015626552258196102    0.010508000000000002     -2800.873651513698
0.001955060078270195      0.001559358789894977     0.010508000000000002     -2939.709802686758
0.001969822620387058      0.0015905916984629348    0.010508                 -2803.441157924945
0.0019420150600289521     0.0015872952625383013    0.010508                 -2932.3523778794897
0.0019567776021458157     0.001618528171106259     0.010508                 -2749.9453119284553
0.0019289700417877095     0.0016152317351816256    0.010508                 -2864.655540868856
0.0019437325839045732     0.0016464646437495834    0.010508                 -2640.3861135242305
0.001915925023546467      0.00164316820782495      0.010508000000000002     -2736.619291654854
0.0019306875656633304     0.0016744011163929077    0.010508                 -2474.7635627122677
0.0019028800053052244     0.0016711046804682743    0.010508000000000002     -2548.3055583743353
0.001917642547422088      0.001702337589036232     0.010508                 -2285.87415260103
0.0019272525179120886     0.0015560623539703433    0.010508                 -3114.2005551235643
0.0019142074996708462     0.0015839988266136676    0.010508                 -3102.212411243613
0.0019011624814296035     0.001611935299256992     0.010508                 -3029.8848551602932
0.0018881174631883609     0.0016398717719003162    0.010508                 -2897.0884718539387
0.0018994449575539824     0.0015527659180457096    0.010508                 -3286.128799829338
0.00188639993931274       0.0015807023906890339    0.010508                 -3269.509936876702
0.0018733549210714973     0.0016086388633323582    0.010508                 -3192.3201555519795
0.0018716373971958764     0.001549469482121076     0.010508                 -3455.494536804078
0.0018585923789546338     0.0015774059547644004    0.010508                 -3434.000609468456
0.0018438298368377703     0.0015461730461964426    0.010508000000000002     -3622.1298336033683
0.0018842477543880528     0.0017021733890022076    0.010508000000000002     -2357.578040060021
0.0018694852122711895     0.0016709404804342498    0.010508000000000002     -2685.5779907307624
0.0018508529613540181     0.001702009188968183     0.010508                 -2481.670653152861
0.0018360904192371544     0.0016707762804002249    0.010508                 -2823.5101583298733
0.001817458168319983      0.0017018449889341582    0.010508                 -2606.8796797279992
0.0018026956262031197     0.0016706120803662004    0.010508                 -2962.1639893085216
0.001784063375285948      0.0017016807889001337    0.010508                 -2733.20511978544
0.0017693008331690846     0.001670447880332176     0.010508000000000002     -3101.539483666703
0.0017506685822519133     0.0017015165888661092    0.010508                 -2860.646973325179
0.0017359060401350497     0.0016702836802981514    0.010508000000000002     -3149.6059787096087
0.0017172737892178782     0.0017013523888320845    0.010508                 -2863.487866733727
0.0018547226701543258     0.0016397075718662917    0.010508                 -3053.1111936770244
0.001821327877120291      0.0016395433718322673    0.010508                 -3209.984993899311
0.0017879330840862562     0.0016393791717982426    0.010508                 -3367.5804575011352
0.0017545382910522209     0.0016392149717642179    0.010508                 -3453.1819981587228
0.0018399601280374624     0.0016084746632983337    0.010508                 -3367.1824188491896
0.0018065653350034276     0.0016083104632643092    0.010508                 -3542.997851694654
0.0017731705419693925     0.0016081462632302845    0.010508                 -3663.8171702538184
0.001825197585920599      0.001577241754730376     0.010508                 -3627.7916662472585
0.0017918027928865638     0.0015770775546963512    0.010508                 -3781.5114949948966
0.0018104350438037354     0.001546008846162418     0.010508000000000002     -3806.264972381958
0.0016111111111111113     0.0019                   0.010508                 233.9743823723779
0.0016288048907955725     0.0018668920648053475    0.010508000000000002     -487.6086898275792
0.0016481481481481486     0.0018999999999999998    0.010508000000000002     1.236106553911761E-12
0.0016658419278326093     0.0018668920648053475    0.010508000000000002     -607.8698077101459
0.0016464986704800336     0.001833784129610695     0.010508                 -1098.542267764651
0.0016835357075170704     0.0018337841296106948    0.010508                 -1160.5048774994787
0.0016641924501644948     0.0018006761944160423    0.010508                 -1651.741720588563
0.0017012294872015316     0.001800676194416042     0.010508                 -1657.9052093679989
0.001681886229848956      0.0017675682592213898    0.010508                 -2147.207048299315
0.0017189232668859927     0.0017675682592213898    0.010508000000000002     -2100.070803315703
0.001699580009533417      0.001734460324026737     0.010508                 -2584.9382508969093
0.0017366170465704543     0.001734460324026737     0.010508000000000002     -2534.0227941595595
0.0016851851851851854     0.0019                   0.010508                 1.2232783951066734E-12
0.0017028789648696463     0.0018668920648053473    0.010508                 -583.2610220593117
0.0017205727445541075     0.0018337841296106948    0.010508                 -1111.2873061978112
0.0017382665242385688     0.0018006761944160423    0.010508                 -1584.078852415495
0.0017559603039230297     0.0017675682592213895    0.010508                 -2021.0684666557825
0.0017222222222222222     0.0018999999999999998    0.010508                 1.207338576007772E-12
0.0017399160019066834     0.0018668920648053473    0.010508                 -558.6522364084781
0.0017576097815911445     0.0018337841296106948    0.010508                 -1062.069734896143
0.0017753035612756056     0.001800676194416042     0.010508                 -1500.14144417001
0.0017592592592592595     0.0018999999999999998    0.010508                 1.1882870966150553E-12
0.0017769530389437206     0.0018668920648053473    0.010508                 -534.0434507576433
0.0017946468186281815     0.0018337841296106946    0.010508                 -971.2417267022397
0.0017962962962962963     0.0018999999999999998    0.010508                 1.1661239569285255E-12
0.0018139900759807574     0.001866892064805347     0.010508000000000002     -434.3693142524743
0.0018333333333333333     0.0018999999999999996    0.010508                 73.65052878618941
0.001903591011740629      0.0017352813241968599    0.010508000000000002     -2073.156804322098
0.0018701962187065943     0.0017351171241628358    0.010508000000000002     -2147.6945647266384
0.00188953947605917       0.0017682250593574881    0.010508                 -1743.8817429139388
0.0018561446830251348     0.0017680608593234632    0.010508                 -1787.1282813639893
0.0018754879403777105     0.001801168794518116     0.010508                 -1360.880952459721
0.0018420931473436758     0.0018010045944840914    0.010508                 -1368.8744200216895
0.0018614364046962515     0.0018341125296787437    0.010508                 -924.1544329594451
0.0018280416116622168     0.0018339483296447192    0.010508000000000002     -892.9329806997392
0.0018473848690147925     0.0018670562648393718    0.010508                 -433.7021844131092
0.001836801425672559      0.0017349529241288107    0.010508                 -2253.7651604115126
0.0018227498899911        0.001767896659289439     0.010508                 -1870.0747815239943
0.0018086983543096407     0.0018008403944500667    0.010508                 -1428.696824656826
0.001803406632638524      0.0017347887240947864    0.010508                 -2361.3469196814517
0.001789355096957065      0.0017677324592554142    0.010508                 -1954.532445269065
0.001770011839604489      0.0017346245240607617    0.010508                 -2470.439842536455
0.0016830261444154514     0.0016992809920109227    0.010508000000000002     -2880.2350424157867
0.00166533236473099       0.0017323889272055754    0.010508000000000002     -2626.7797662251946
0.001647638585046529      0.0017654968624002277    0.010508                 -2161.62893898098
0.0016299448053620678     0.0017986047975948804    0.010508                 -1636.2445994312625
0.0016122510256776066     0.0018317127327895331    0.010508000000000002     -1050.6267475760378
0.0015945572459931457     0.0018648206679841854    0.010508000000000002     -414.8744103431407
0.0016487784996130246     0.001697209595189761     0.010508                 -2969.894655001349
0.001631084719928563      0.0017303175303844134    0.010508                 -2700.554217437027
0.001613390940244102      0.001763425465579066     0.010508                 -2234.1753264660592
0.0015956971605596412     0.0017965334007737186    0.010508                 -1707.5629231895884
0.0015780033808751796     0.001829641335968371     0.010508                 -1128.0636225413327
0.0016145308548105976     0.001695138198368599     0.010508                 -3067.348899370044
0.0015968370751261365     0.0017282461335632517    0.010508                 -2781.15426783255
0.0015791432954416753     0.0017613540687579044    0.010508                 -2313.547313134831
0.0015614495157572142     0.0017944620039525567    0.010508                 -1788.6060630360166
0.0015802832100081706     0.0016930668015474374    0.010508                 -3172.597775521872
0.0015625894303237097     0.0017261747367420899    0.010508                 -2868.5799174117615
0.0015448956506392483     0.0017592826719367424    0.010508                 -2396.501731827184
0.0015460355652057438     0.0016909954047262755    0.010508                 -3285.641283456832
0.001528341785521283      0.0017241033399209283    0.010508000000000002     -2951.750628914838
0.001511787920403317      0.0016889240079051137    0.010508                 -3369.5932739988452
0.0017030705492511004     0.0016660136171781138    0.010508000000000002     -3210.657798722309
0.0016688229044486734     0.0016639422203569522    0.010508000000000002     -3312.463504329669
0.0016345752596462469     0.00166187082353579      0.010508                 -3424.917275621981
0.0016003276148438199     0.0016597994267146285    0.010508                 -3546.134711296875
0.0015660799700413929     0.0016577280298934664    0.010508000000000002     -3676.1158113543424
0.0015318323252389663     0.0016556566330723048    0.010508000000000002     -3755.70204820166
0.0016888673092843227     0.001630674845524143     0.010508                 -3679.258804398526
0.0016546196644818957     0.001628603448702981     0.010508                 -3790.020322374625
0.001620372019679469      0.0016265320518818191    0.010508                 -3910.6111547267164
0.0015861243748770421     0.0016244606550606575    0.010508                 -4039.9656514613857
0.0015518767300746151     0.0016223892582394954    0.010508                 -4151.49973197233
0.001674664069317545      0.0015953360738701718    0.010508                 -4042.1260485012685
0.001640416424515118      0.0015932646770490102    0.010508                 -4161.443457802536
0.0016061687797126914     0.0015911932802278484    0.010508                 -4290.171351214405
0.0015719211349102644     0.0015891218834066865    0.010508                 -4429.895930312289
0.0016604608293507672     0.0015599973022162013    0.010508                 -4299.259531030535
0.0016262131845483402     0.0015579259053950393    0.010508                 -4426.732910613406
0.0015919655397459132     0.0015558545085738774    0.010508                 -4590.89064322153
0.0016462575893839892     0.0015246585305622301    0.010508                 -4450.659251986326
0.0016120099445815625     0.0015225871337410683    0.010508000000000002     -4634.483870700058
0.0016320543494172115     0.0014893197589082594    0.010508                 -4633.728090291999
0.0017962318038369576     0.0015106700745084471    0.010508000000000002     -3867.0369931619425
0.0017775995529197863     0.0015417387830423805    0.010508000000000002     -3906.500189752953
0.0017589673020026145     0.0015728074915763138    0.010508                 -3875.897864921566
0.0017403350510854436     0.0016038762001102471    0.010508                 -3750.0374250230598
0.0017217028001682718     0.0016349449086441805    0.010508000000000002     -3528.918870057435
0.0017633963129530085     0.0015064000113884097    0.010508                 -4006.1908342916213
0.001744764062035837      0.0015374687199223428    0.010508                 -4038.3624967252445
0.0017261318111186656     0.0015685374284562762    0.010508                 -4014.2745976812644
0.0017074995602014943     0.0015996061369902095    0.010508                 -3894.928583570165
0.001730560822069059      0.0015021299482683719    0.010508                 -4150.018175014185
0.0017119285711518877     0.0015331986568023054    0.010508                 -4173.177929809562
0.0016932963202347163     0.0015642673653362387    0.010508                 -4155.604456552986
0.00169772533118511       0.0014978598851483347    0.010508                 -4298.519015329636
0.0016790930802679386     0.001528928593682268     0.010508                 -4310.9464890059035
0.0016648898403011608     0.0014935898220282968    0.010508                 -4451.693355237972
0.001410283944939265      0.0014956970895976896    0.010508                 -4754.540642708525
0.001447245679018923      0.0014946342011494512    0.010508000000000002     -4869.7501712761605
0.0014272012741832736     0.00152790157598226      0.010508000000000002     -4772.046456702639
0.0014641630082629317     0.0015268386875340219    0.010508000000000002     -4790.498768554058
0.0014842074130985807     0.001493571312701213     0.010508                 -4805.8794510204025
0.0015011247423425893     0.0015257757990857833    0.010508                 -4746.622122780397
0.0015211691471782383     0.0014925084242529744    0.010508                 -4756.1440390527405
0.0015380864764222468     0.001524712910637545     0.010508                 -4714.093289528983
0.001558130881257896      0.0014914455358047362    0.010508                 -4720.543935373176
0.0015750482105019047     0.001523650022189307     0.010508000000000002     -4692.912268799815
0.001595092615337554      0.0014903826473564976    0.010508                 -4699.07913998171
0.0014441186034272824     0.001560106062366831     0.010508                 -4680.835403021691
0.00148108033750694       0.0015590431739185924    0.010508                 -4684.941669599226
0.001518042071586598      0.0015579802854703542    0.010508                 -4651.341107663242
0.0015550038056662556     0.0015569173970221158    0.010508                 -4629.088358249509
0.0014610359326712912     0.0015923105487514015    0.010508                 -4478.062026776666
0.0014979976667509488     0.0015912476603031633    0.010508                 -4467.43009529009
0.0015349594008306068     0.001590184771854925     0.010508                 -4444.105617191788
0.0014779532619152997     0.0016245150351359722    0.010508                 -4163.726327967572
0.0015149149959949575     0.0016234521466877338    0.010508                 -4137.964045626661
0.0014948705911593085     0.001656719521520543     0.010508                 -3737.8283065944033
0.001784688208438832      0.0014734243911282228    0.010508000000000002     -4107.144880464099
0.0017518527175548826     0.0014691543280081851    0.010508                 -4247.620272164195
0.0017190172266709335     0.001464884264888148     0.010508                 -4394.489536938046
0.0016861817357869842     0.0014606142017681103    0.010508000000000002     -4547.752674785642
0.0016533462449030351     0.0014563441386480727    0.010508000000000002     -4703.736581301947
0.0017731446130407062     0.0014361787077479982    0.010508                 -4189.328680999096
0.0017403091221567571     0.001431908644627961     0.010508                 -4317.319663324831
0.001707473631272808      0.0014276385815079234    0.010508                 -4451.704518724311
0.0016746381403888585     0.0014233685183878857    0.010508                 -4592.4799757176515
0.0017616010176425808     0.001398933024367774     0.010508                 -4138.780988411671
0.0017287655267586317     0.0013946629612477364    0.010508                 -4254.287561363036
0.0016959300358746821     0.0013903928981276988    0.010508                 -4379.33958987613
0.001750057422244455      0.0013616873409875497    0.010508                 -3955.5018027018186
0.0017172219313605058     0.001357417277867512     0.010508                 -4064.3154237773733
0.0017385138268463294     0.0013244416576073254    0.010508000000000002     -3647.4074774213914
0.0018095945733537417     8.866953298527028E-4     0.010508                 73.09306410592347
0.0018291862650848198     9.216698392199453E-4     0.010508000000000002     -122.1699773939473
0.0017871178274837685     9.217640045899157E-4     0.010508000000000002     -325.024014820677
0.0018067095192148466     9.567385139571582E-4     0.010508000000000002     -687.4219551242518
0.0018487779568158978     9.56644348587188E-4      0.010508                 -508.40329676603255
0.0018263012109459241     9.917130233244005E-4     0.010508                 -990.8256907850327
0.0018683696485469756     9.916188579544303E-4     0.010508                 -838.6349740676521
0.0018458929026770024     0.0010266875326916433    0.010508                 -1229.006171531992
0.0018879613402780536     0.0010265933673216728    0.010508                 -1112.8650092988053
0.0018654845944080802     0.0010616620420588856    0.010508000000000002     -1401.9633973651212
0.0019075530320091314     0.0010615678766889153    0.010508                 -1331.0934024594937
0.0018850762861391582     0.001096636551426128     0.010508000000000002     -1335.0048617780326
0.0019271447237402095     0.0010965423860561578    0.010508                 -1178.5449664575556
0.001764641081613795      9.568326793271286E-4     0.010508                 -668.2966534436416
0.0017842327733448731     9.91807188694371E-4      0.010508                 -992.902453146889
0.0018038244650759512     0.0010267816980616136    0.010508                 -1262.7705839974315
0.0018234161568070292     0.001061756207428856     0.010508                 -1467.4154599341512
0.0018430078485381068     0.0010967307167960984    0.010508                 -1419.3754176754674
0.0017421643357438217     9.919013540643413E-4     0.010508                 -1023.7386592000172
0.0017617560274748997     0.001026875863431584     0.010508                 -1311.5704174922482
0.0017813477192059777     0.0010618503727988263    0.010508                 -1547.9029435325556
0.0018009394109370555     0.0010968248821660689    0.010508                 -1518.0111668257878
0.0017196875898738482     0.0010269700288015543    0.010508                 -1391.350032089804
0.0017392792816049263     0.0010619445381687968    0.010508                 -1643.4258481603308
0.001758870973336004      0.0010969190475360391    0.010508                 -1630.912109228994
0.0016972108440038748     0.0010620387035387671    0.010508                 -1771.1307721129992
0.0017168025357349528     0.0010970132129060096    0.010508000000000002     -1758.0782448850857
0.0016747340981339016     0.00109710737827598      0.010508                 -1909.7588482743786
0.0020966666159561663     0.0012017457872085893    0.010508000000000002     -1243.0259618003122
0.0020681952711515995     0.0012231284599429927    0.010508000000000002     -1552.1658986997077
0.002039723926347033      0.0012445111326773962    0.010508                 -1838.1493424476348
0.002011252581542467      0.0012658938054118       0.010508                 -2114.8904679856305
0.0019827812367379004     0.0012872764781462036    0.010508000000000002     -2382.3892753136934
0.001954309891933334      0.0013086591508806073    0.010508000000000002     -2624.3820084625086
0.0020627622375129747     0.0011807051069781028    0.010508                 -1287.9993668069255
0.0020342908927084083     0.0012020877797125063    0.010508                 -1544.3338676460194
0.002005819547903842      0.00122347045244691      0.010508                 -1836.968937674798
0.0019773482030992755     0.0012448531251813136    0.010508                 -2120.361689493645
0.001948876858294709      0.0012662357979157171    0.010508                 -2408.5505402566714
0.0020288578590697834     0.0011596644267476165    0.010508                 -1285.6548756520401
0.002000386514265217      0.0011810470994820202    0.010508                 -1485.4177679374427
0.0019719151694606507     0.0012024297722164237    0.010508                 -1784.7044642470723