% Model:              stripline_filter_simple_decomp_new_mesh.mph
% Version:            COMSOL 6.1.0.252
% Date:               May 3 2023, 13:20
% Dimension:          3
% Nodes:              2539
% Expressions:        1
% Description:        Surface
% X                       Y                        Z                        imag(emw.Ey)
0.0019959126568695434     0.001534718753176286     0.010508                 -2088.209537616127
0.0019681050965114372     0.0015314223172516522    0.010508000000000002     -2189.3643392564604
0.001989884368319946      0.0015041127116211543    0.010508000000000002     -1713.381048546305
0.00196207680796184       0.001500816275696521     0.010508000000000002     -1784.1521127955843
0.0019402975361533313     0.001528125881327019     0.010508                 -2312.0777970238983
0.0019342692476037337     0.0014975198397718871    0.010508                 -1847.957629330997
0.001912489975795225      0.0015248294454023852    0.010508                 -2431.1912472119357
0.0019064616872456277     0.0014942234038472536    0.010508                 -1910.2612817871086
0.001884682415437119      0.0015215330094777517    0.010508                 -2546.7046898205717
0.0018786541268875215     0.0014909269679226201    0.010508000000000002     -1971.0630701639175
0.0018568748550790127     0.0015182365735531183    0.010508                 -2658.6181248498065
0.0018508465665294154     0.0014876305319979867    0.010508000000000002     -2092.5320232828562
0.0018290672947209067     0.0015149401376284846    0.010508                 -2784.7274927278618
0.0019838560797703487     0.001473506670066023     0.010508                 -1323.167197074493
0.0019560485194122425     0.0014702102341413894    0.010508                 -1372.9790496634566
0.0019282409590541364     0.001466913798216756     0.010508                 -1421.8087768912253
0.0019004333986960302     0.0014636173622921225    0.010508                 -1469.1366400396917
0.001872625838337924      0.0014603209263674886    0.010508                 -1549.0246831938225
0.001977827791220751      0.0014429006285108913    0.010508                 -926.0295304851427
0.0019500202308626452     0.0014396041925862578    0.010508                 -955.3834867651531
0.001922212670504539      0.0014363077566616244    0.010508                 -989.2374246852767
0.0018944051101464328     0.0014330113207369909    0.010508                 -1027.805931630926
0.0019717995026711536     0.00141229458695576      0.010508                 -521.9680487782539
0.0019439919423130476     0.0014089981510311265    0.010508                 -531.3654241006755
0.0019161843819549414     0.0014057017151064928    0.010508                 -528.8757685941662
0.0019657712141215563     0.0013816885454006286    0.010508                 -110.98275195382578
0.0019379636537634503     0.001378392109475995     0.010508000000000002     -52.23419408354404
0.001959742925571959      0.001351082503845497     0.010508                 400.3165355649965
0.0020241257828924643     0.0015195049091701958    0.010508000000000002     -1793.3704201875173
0.002018097494342867      0.0014888988676150644    0.010508000000000002     -1411.8422606479123
0.0020120692057932696     0.0014582928260599328    0.010508                 -1042.8390207029356
0.0020060409172436722     0.0014276867845048015    0.010508                 -666.4106502890565
0.002000012628694075      0.0013970807429496699    0.010508000000000002     -282.5571494062755
0.0019939843401444775     0.0013664747013945385    0.010508000000000002     166.41960019510338
0.0020523389089153856     0.001504291065164106     0.010508                 -1497.5587515544414
0.002046310620365788      0.0014736850236089743    0.010508                 -1135.8736079111175
0.0020402823318161904     0.0014430789820538427    0.010508                 -782.0975571403044
0.002034254043266593      0.0014124729404987111    0.010508                 -420.896375900589
0.0020282257547169953     0.0013818668989435796    0.010508                 -4.471459258290622
0.002080552034938306      0.0014890772211580156    0.010508                 -1221.3667781748186
0.0020745237463887086     0.001458471179602884     0.010508                 -880.0114067013565
0.0020684954578391113     0.0014278651380477529    0.010508                 -541.4625451047073
0.002062467169289514      0.0013972590964926213    0.010508                 -157.2774874359772
0.0021087651609612273     0.0014738633771519255    0.010508                 -964.7945000486488
0.00210273687241163       0.0014432573355967942    0.010508                 -644.2556570186296
0.002096708583862032      0.0014126512940416626    0.010508                 -291.99848433795677
0.002136978286984148      0.0014586495331458354    0.010508                 -727.8419171759319
0.002130949998434551      0.0014280434915907038    0.010508000000000002     -408.634449964229
0.002165191413007069      0.0014434356891397453    0.010508                 -507.79083994222736
0.0021305709943993576     0.0012227864674390753    0.010508                 619.3578739404853
0.0021363410641673094     0.0012595613377225205    0.010508000000000002     420.56383606979705
0.0021020996495947912     0.001244169140173479     0.010508000000000002     614.5047300772376
0.002107869719362743      0.001280944010456924     0.010508000000000002     399.092075284643
0.0021421111339352617     0.0012963362080059652    0.010508                 227.12443901658384
0.002113639789130695      0.001317718880740369     0.010508                 193.93294095252367
0.002147881203703213      0.0013331110782894102    0.010508                 38.713216181122846
0.002119409858898647      0.001354493751023814     0.010508                 -5.74587321654343
0.0021536512734711653     0.0013698859485728552    0.010508                 -144.66983243658592
0.002125179928666599      0.0013912686213072589    0.010508000000000002     -199.94436722255836
0.002159421343239117      0.0014066608188563002    0.010508                 -323.0247068365427
0.002073628304790225      0.0012655518129078827    0.010508                 602.6343900590334
0.0020793983745581767     0.0013023266831913276    0.010508                 372.96557995448245
0.0020851684443261285     0.0013391015534747726    0.010508                 155.4757384466796
0.0020909385140940803     0.0013758764237582176    0.010508                 -56.53378289807125
0.002045156959985658      0.0012869344856422861    0.010508                 578.7375428044841
0.0020509270297536103     0.0013237093559257311    0.010508                 335.0943553711217
0.002056697099521562      0.0013604842262091763    0.010508                 105.27380668763516
0.0020166856151810917     0.0013083171583766896    0.010508                 542.814188313588
0.002022455684949044      0.0013450920286601348    0.010508                 285.47840153456053
0.0019882142703765253     0.0013296998311110933    0.010508                 494.86432658634595
0.0019264200583653246     0.0013411464260957707    0.010508000000000002     724.0741797943082
0.001904640786556816      0.0013684560317262688    0.010508000000000002     211.64593663781
0.0018828615147483071     0.0013957656373567665    0.010508                 -305.04720695072194
0.0018610822429397985     0.0014230752429872646    0.010508                 -844.2903128217166
0.0018393029711312899     0.0014503848486177623    0.010508000000000002     -1406.0833809751732
0.001817523699322781      0.0014776944542482604    0.010508000000000002     -2019.366921335452
0.0018930971911586903     0.0013312103483460443    0.010508                 1001.8691827943445
0.0018713179193501814     0.0013585199539765422    0.010508                 440.6739296582395
0.001849538647541673      0.00138582955960704      0.010508                 -88.74791954071239
0.0018277593757331642     0.001413139165237538     0.010508                 -640.719731022127
0.0018059801039246553     0.0014404487708680358    0.010508                 -1224.204510977844
0.001859774323952056      0.0013212742705963178    0.010508                 1292.5202980842
0.0018379950521435473     0.0013485838762268157    0.010508                 683.5404525642234
0.0018162157803350387     0.0013758934818573136    0.010508                 141.38989775485084
0.0017944365085265299     0.0014032030874878115    0.010508                 -414.05552882831637
0.0018264514567454216     0.0013113381928465913    0.010508                 1596.0275256638747
0.001804672184936913      0.0013386477984770892    0.010508                 940.2455053557601
0.0017828929131284042     0.0013659574041075871    0.010508                 411.08002511313106
0.0017931285895387873     0.0013014021150968649    0.010508                 1912.3908655333694
0.0017713493177302787     0.001328711720727363     0.010508000000000002     1251.2021508464984
0.001759805722332153      0.0012914660373471384    0.010508                 2241.833184651741
0.001982867638628301      0.0015626552258196102    0.010508000000000002     -2516.362391426891
0.001955060078270195      0.001559358789894977     0.010508000000000002     -2676.9604650406163
0.001969822620387058      0.0015905916984629348    0.010508                 -2986.9680859678
0.0019420150600289521     0.0015872952625383013    0.010508                 -3174.9664533540617
0.0019567776021458157     0.001618528171106259     0.010508                 -3469.22939046941
0.0019289700417877095     0.0016152317351816256    0.010508                 -3683.8439672917193
0.0019437325839045732     0.0016464646437495834    0.010508                 -3963.1463049317204
0.001915925023546467      0.00164316820782495      0.010508000000000002     -4203.593006853589
0.0019306875656633304     0.0016744011163929077    0.010508                 -4468.718829354731
0.0019028800053052244     0.0016711046804682743    0.010508000000000002     -4779.145648793374
0.001917642547422088      0.001702337589036232     0.010508                 -5096.004138776282
0.0019272525179120886     0.0015560623539703433    0.010508                 -2853.856728166673
0.0019142074996708462     0.0015839988266136676    0.010508                 -3362.1133699143575
0.0019011624814296035     0.001611935299256992     0.010508                 -3881.2415372862542
0.0018881174631883609     0.0016398717719003162    0.010508                 -4436.68117896319
0.0018994449575539824     0.0015527659180457096    0.010508                 -3025.054840213231
0.00188639993931274       0.0015807023906890339    0.010508                 -3543.5621353951537
0.0018733549210714973     0.0016086388633323582    0.010508                 -4079.0042235991123
0.0018716373971958764     0.001549469482121076     0.010508                 -3190.554801180288
0.0018585923789546338     0.0015774059547644004    0.010508                 -3706.114782701141
0.0018438298368377703     0.0015461730461964426    0.010508000000000002     -3318.0128562692757
0.0018842477543880528     0.0017021733890022076    0.010508000000000002     -5568.89867452137
0.0018694852122711895     0.0016709404804342498    0.010508000000000002     -5194.909510170479
0.0018508529613540181     0.001702009188968183     0.010508                 -5984.3422885857435
0.0018360904192371544     0.0016707762804002249    0.010508                 -5552.543843345243
0.001817458168319983      0.0017018449889341582    0.010508                 -6382.282136404571
0.0018026956262031197     0.0016706120803662004    0.010508                 -5896.980725071377
0.001784063375285948      0.0017016807889001337    0.010508                 -6762.718217977852
0.0017693008331690846     0.001670447880332176     0.010508000000000002     -6228.220155348873
0.0017506685822519133     0.0017015165888661092    0.010508                 -7125.650533305585
0.0017359060401350497     0.0016702836802981514    0.010508000000000002     -6591.169741898776
0.0017172737892178782     0.0017013523888320845    0.010508                 -7508.358920051326
0.0018547226701543258     0.0016397075718662917    0.010508                 -4812.960137702162
0.001821327877120291      0.0016395433718322673    0.010508                 -5150.601696311672
0.0017879330840862562     0.0016393791717982426    0.010508                 -5475.045803472548
0.0017545382910522209     0.0016392149717642179    0.010508                 -5811.803868298628
0.0018399601280374624     0.0016084746632983337    0.010508                 -4415.913726489824
0.0018065653350034276     0.0016083104632643092    0.010508                 -4733.562510534078
0.0017731705419693925     0.0016081462632302845    0.010508                 -5041.774773906956
0.001825197585920599      0.001577241754730376     0.010508                 -4003.770276533465
0.0017918027928865638     0.0015770775546963512    0.010508                 -4281.082458723763
0.0018104350438037354     0.001546008846162418     0.010508000000000002     -3529.726922749044
0.0016111111111111113     0.0019                   0.010508                 -10264.394148963102
0.0016288048907955725     0.0018668920648053475    0.010508000000000002     -9813.2263913299
0.0016481481481481486     0.0018999999999999998    0.010508000000000002     -9907.586744436243
0.0016658419278326093     0.0018668920648053475    0.010508000000000002     -9470.887187034648
0.0016464986704800336     0.001833784129610695     0.010508                 -9380.13469187789
0.0016835357075170704     0.0018337841296106948    0.010508                 -9026.461125404127
0.0016641924501644948     0.0018006761944160423    0.010508                 -8938.472901112713
0.0017012294872015316     0.001800676194416042     0.010508                 -8574.308559544683
0.001681886229848956      0.0017675682592213898    0.010508                 -8488.241019034365
0.0017189232668859927     0.0017675682592213898    0.010508000000000002     -8114.429489456319
0.001699580009533417      0.001734460324026737     0.010508                 -8029.439045642848
0.0017366170465704543     0.001734460324026737     0.010508000000000002     -7655.65373736256
0.0016851851851851854     0.0019                   0.010508                 -9559.042040479031
0.0017028789648696463     0.0018668920648053473    0.010508                 -9102.948769553896
0.0017205727445541075     0.0018337841296106948    0.010508                 -8639.12899439984
0.0017382665242385688     0.0018006761944160423    0.010508                 -8167.582715016861
0.0017559603039230297     0.0017675682592213895    0.010508                 -7688.589335557838
0.0017222222222222222     0.0018999999999999998    0.010508                 -9163.160914243928
0.0017399160019066834     0.0018668920648053473    0.010508                 -8687.673929795257
0.0017576097815911445     0.0018337841296106948    0.010508                 -8204.460441117666
0.0017753035612756056     0.001800676194416042     0.010508                 -7705.455642626022
0.0017592592592592595     0.0018999999999999998    0.010508                 -8719.943365730936
0.0017769530389437206     0.0018668920648053473    0.010508                 -8225.06266775873
0.0017946468186281815     0.0018337841296106946    0.010508                 -7706.252658567111
0.0017962962962962963     0.0018999999999999998    0.010508                 -8229.389394940055
0.0018139900759807574     0.001866892064805347     0.010508000000000002     -7690.980383381104
0.0018333333333333333     0.0018999999999999996    0.010508                 -7633.512373751745
0.001903591011740629      0.0017352813241968599    0.010508000000000002     -5529.696034990981
0.0018701962187065943     0.0017351171241628358    0.010508000000000002     -5989.504767448112
0.00188953947605917       0.0017682250593574881    0.010508                 -5938.687888505987
0.0018561446830251348     0.0017680608593234632    0.010508                 -6405.320426415177
0.0018754879403777105     0.001801168794518116     0.010508                 -6350.666117733589
0.0018420931473436758     0.0018010045944840914    0.010508                 -6823.482482049164
0.0018614364046962515     0.0018341125296787437    0.010508                 -6765.630722673786
0.0018280416116622168     0.0018339483296447192    0.010508000000000002     -7243.990934350069
0.0018473848690147925     0.0018670562648393718    0.010508                 -7183.5817033265785
0.001836801425672559      0.0017349529241288107    0.010508                 -6440.964587046294
0.0018227498899911        0.001767896659289439     0.010508                 -6854.979945222816
0.0018086983543096407     0.0018008403944500667    0.010508                 -7271.341700066258
0.001803406632638524      0.0017347887240947864    0.010508                 -6870.614325602019
0.001789355096957065      0.0017677324592554142    0.010508                 -7282.829382987995
0.001770011839604489      0.0017346245240607617    0.010508                 -7278.453983115281
0.0016830261444154514     0.0016992809920109227    0.010508000000000002     -7784.35847109422
0.00166533236473099       0.0017323889272055754    0.010508000000000002     -8272.793784672485
0.001647638585046529      0.0017654968624002277    0.010508                 -8720.53341983473
0.0016299448053620678     0.0017986047975948804    0.010508                 -9158.859376599557
0.0016122510256776066     0.0018317127327895331    0.010508000000000002     -9587.771654966973
0.0015945572459931457     0.0018648206679841854    0.010508000000000002     -10026.229823764184
0.0016487784996130246     0.001697209595189761     0.010508                 -7988.028762293283
0.001631084719928563      0.0017303175303844134    0.010508                 -8483.158235585282
0.001613390940244102      0.001763425465579066     0.010508                 -8909.245419920491
0.0015956971605596412     0.0017965334007737186    0.010508                 -9325.918925858285
0.0015780033808751796     0.001829641335968371     0.010508                 -9746.162278208145
0.0016145308548105976     0.001695138198368599     0.010508                 -8149.566391003578
0.0015968370751261365     0.0017282461335632517    0.010508                 -8644.970679588056
0.0015791432954416753     0.0017613540687579044    0.010508                 -9049.405413096225
0.0015614495157572142     0.0017944620039525567    0.010508                 -9451.991073718755
0.0015802832100081706     0.0016930668015474374    0.010508                 -8268.971357225104
0.0015625894303237097     0.0017261747367420899    0.010508                 -8758.231116680796
0.0015448956506392483     0.0017592826719367424    0.010508                 -9143.716210296006
0.0015460355652057438     0.0016909954047262755    0.010508                 -8346.243660957862
0.001528341785521283      0.0017241033399209283    0.010508000000000002     -8821.337687939907
0.001511787920403317      0.0016889240079051137    0.010508                 -8378.514285000452
0.0017030705492511004     0.0016660136171781138    0.010508000000000002     -6791.023322413761
0.0016688229044486734     0.0016639422203569522    0.010508000000000002     -7012.77368478626
0.0016345752596462469     0.00166187082353579      0.010508                 -7164.443863273911
0.0016003276148438199     0.0016597994267146285    0.010508                 -7280.400723694058
0.0015660799700413929     0.0016577280298934664    0.010508000000000002     -7360.644266046698
0.0015318323252389663     0.0016556566330723048    0.010508000000000002     -7407.180421744464
0.0016888673092843227     0.001630674845524143     0.010508                 -6076.348313587312
0.0016546196644818957     0.001628603448702981     0.010508                 -6258.994137599181
0.001620372019679469      0.0016265320518818191    0.010508                 -6387.010813916195
0.0015861243748770421     0.0016244606550606575    0.010508                 -6479.314172165706
0.0015518767300746151     0.0016223892582394954    0.010508                 -6535.941161505845
0.001674664069317545      0.0015953360738701718    0.010508                 -5347.905670348695
0.001640416424515118      0.0015932646770490102    0.010508                 -5491.737829514379
0.0016061687797126914     0.0015911932802278484    0.010508                 -5596.101003660758
0.0015719211349102644     0.0015891218834066865    0.010508                 -5659.998760458527
0.0016604608293507672     0.0015599973022162013    0.010508                 -4605.6953926979095
0.0016262131845483402     0.0015579259053950393    0.010508                 -4711.004760531859
0.0015919655397459132     0.0015558545085738774    0.010508                 -4779.353218602504
0.0016462575893839892     0.0015246585305622301    0.010508                 -3849.717480634952
0.0016120099445815625     0.0015225871337410683    0.010508000000000002     -3894.0045359377787
0.0016320543494172115     0.0014893197589082594    0.010508                 -2920.165395691964
0.0017962318038369576     0.0015106700745084471    0.010508000000000002     -2841.6880861480977
0.0017775995529197863     0.0015417387830423805    0.010508000000000002     -3601.8125155099833
0.0017589673020026145     0.0015728074915763138    0.010508                 -4380.049751562946
0.0017403350510854436     0.0016038762001102471    0.010508                 -5165.269487095006
0.0017217028001682718     0.0016349449086441805    0.010508000000000002     -5957.471722106164
0.0017633963129530085     0.0015064000113884097    0.010508                 -2886.6583824327026
0.001744764062035837      0.0015374687199223428    0.010508                 -3700.5052905150606
0.0017261318111186656     0.0015685374284562762    0.010508                 -4479.165188850932
0.0017074995602014943     0.0015996061369902095    0.010508                 -5264.807586665899
0.001730560822069059      0.0015021299482683719    0.010508                 -2916.0669708358555
0.0017119285711518877     0.0015331986568023054    0.010508                 -3779.00238268024
0.0016932963202347163     0.0015642673653362387    0.010508                 -4558.084943299019
0.00169772533118511       0.0014978598851483347    0.010508                 -2929.9138513575563
0.0016790930802679386     0.001528928593682268     0.010508                 -3837.303792005523
0.0016648898403011608     0.0014935898220282968    0.010508                 -2928.199023997803
0.001410283944939265      0.0014956970895976896    0.010508                 -3198.4537273301335
0.001447245679018923      0.0014946342011494512    0.010508000000000002     -3202.993610117066
0.0014272012741832736     0.00152790157598226      0.010508000000000002     -4109.083406611353
0.0014641630082629317     0.0015268386875340219    0.010508000000000002     -4117.851260318408
0.0014842074130985807     0.001493571312701213     0.010508                 -3189.414853297273
0.0015011247423425893     0.0015257757990857833    0.010508                 -4103.185954631602
0.0015211691471782383     0.0014925084242529744    0.010508                 -3154.7346818344176
0.0015380864764222468     0.001524712910637545     0.010508                 -4057.191332886924
0.001558130881257896      0.0014914455358047362    0.010508                 -3098.9530957285015
0.0015750482105019047     0.001523650022189307     0.010508000000000002     -3979.867395084373
0.001595092615337554      0.0014903826473564976    0.010508                 -3022.070094979524
0.0014441186034272824     0.001560106062366831     0.010508                 -4953.806448938435
0.00148108033750694       0.0015590431739185924    0.010508                 -4952.66980721821
0.001518042071586598      0.0015579802854703542    0.010508                 -4922.106522435816
0.0015550038056662556     0.0015569173970221158    0.010508                 -4860.213921595552
0.0014610359326712912     0.0015923105487514015    0.010508                 -5792.671749367373
0.0014979976667509488     0.0015912476603031633    0.010508                 -5779.49850499126
0.0015349594008306068     0.001590184771854925     0.010508                 -5733.037241113278
0.0014779532619152997     0.0016245150351359722    0.010508                 -6625.67930789817
0.0015149149959949575     0.0016234521466877338    0.010508                 -6598.337353637557
0.0014948705911593085     0.001656719521520543     0.010508                 -7452.829124530821
0.001784688208438832      0.0014734243911282228    0.010508000000000002     -2030.1725928666376
0.0017518527175548826     0.0014691543280081851    0.010508                 -2001.110021550456
0.0017190172266709335     0.001464884264888148     0.010508                 -1961.1197173112682
0.0016861817357869842     0.0014606142017681103    0.010508000000000002     -1910.2016801490734
0.0016533462449030351     0.0014563441386480727    0.010508000000000002     -1877.2172005003395
0.0017731446130407062     0.0014361787077479982    0.010508                 -1194.299627613288
0.0017403091221567571     0.001431908644627961     0.010508                 -1144.5040051338863
0.001707473631272808      0.0014276385815079234    0.010508                 -1083.7806497314766
0.0016746381403888585     0.0014233685183878857    0.010508                 -1015.0742346882878
0.0017616010176425808     0.001398933024367774     0.010508                 -345.19949760003175
0.0017287655267586317     0.0013946629612477364    0.010508                 -274.67082395740795
0.0016959300358746821     0.0013903928981276988    0.010508                 -170.00967589241952
0.001750057422244455      0.0013616873409875497    0.010508                 517.127797173133
0.0017172219313605058     0.001357417277867512     0.010508                 657.976475887265
0.0017385138268463294     0.0013244416576073254    0.010508000000000002     1468.8842206507666
0.0018095945733537417     8.866953298527028E-4     0.010508                 6190.993189683665
0.0018291862650848198     9.216698392199453E-4     0.010508000000000002     5570.504504237582
0.0017871178274837685     9.217640045899157E-4     0.010508000000000002     6444.734533335639
0.0018067095192148466     9.567385139571582E-4     0.010508000000000002     5837.7495839655385
0.0018487779568158978     9.56644348587188E-4      0.010508                 5069.96642730273
0.0018263012109459241     9.917130233244005E-4     0.010508                 5326.6999148227715
0.0018683696485469756     9.916188579544303E-4     0.010508                 4582.892534211769
0.0018458929026770024     0.0010266875326916433    0.010508                 4824.228254251829
0.0018879613402780536     0.0010265933673216728    0.010508                 4109.2828249646955
0.0018654845944080802     0.0010616620420588856    0.010508000000000002     4330.334602252717
0.0019075530320091314     0.0010615678766889153    0.010508                 3649.1372995615116
0.0018850762861391582     0.001096636551426128     0.010508000000000002     3966.8094151676423
0.0019271447237402095     0.0010965423860561578    0.010508                 3256.1362578881017
0.001764641081613795      9.568326793271286E-4     0.010508                 6569.460614226724
0.0017842327733448731     9.91807188694371E-4      0.010508                 6001.387360951527
0.0018038244650759512     0.0010267816980616136    0.010508                 5498.199812193057
0.0018234161568070292     0.001061756207428856     0.010508                 5003.590272006417
0.0018430078485381068     0.0010967307167960984    0.010508                 4561.936841208395
0.0017421643357438217     9.919013540643413E-4     0.010508                 6662.328915982962
0.0017617560274748997     0.001026875863431584     0.010508                 6135.694956573496
0.0017813477192059777     0.0010618503727988263    0.010508                 5640.369528199328
0.0018009394109370555     0.0010968248821660689    0.010508                 5128.384538036802
0.0017196875898738482     0.0010269700288015543    0.010508                 6723.339438604353
0.0017392792816049263     0.0010619445381687968    0.010508                 6240.672370831444
0.001758870973336004      0.0010969190475360391    0.010508                 5666.152505652862
0.0016972108440038748     0.0010620387035387671    0.010508                 6752.492182090897
0.0017168025357349528     0.0010970132129060096    0.010508000000000002     6175.240744056574
0.0016747340981339016     0.00109710737827598      0.010508                 6656.988489222144
0.0020966666159561663     0.0012017457872085893    0.010508000000000002     963.228740139446
0.0020681952711515995     0.0012231284599429927    0.010508000000000002     986.1566050920094
0.002039723926347033      0.0012445111326773962    0.010508                 982.3790592897977
0.002011252581542467      0.0012658938054118       0.010508                 966.2932282680948
0.0019827812367379004     0.0012872764781462036    0.010508000000000002     937.8991120268998
0.001954309891933334      0.0013086591508806073    0.010508000000000002     893.4187532675373
0.0020627622375129747     0.0011807051069781028    0.010508                 1320.8426419093937
0.0020342908927084083     0.0012020877797125063    0.010508                 1385.1776622932193
0.002005819547903842      0.00122347045244691      0.010508                 1387.5674625707272
0.0019773482030992755     0.0012448531251813136    0.010508                 1377.6489776287435
0.001948876858294709      0.0012662357979157171    0.010508                 1351.4119308173672
0.0020288578590697834     0.0011596644267476165    0.010508                 1713.5427209050283
0.002000386514265217      0.0011810470994820202    0.010508                 1816.3411019782907
0.0019719151694606507     0.0012024297722164237    0.010508                 1824.898248335518
0.0019434438246560843     0.0012238124449508274    0.010508                 1817.4146565193341
0.001994953480626592      0.0011386237465171303    0.010508                 2141.32897712635