% Model:              stripline_filter_simple_decomp_new_mesh.mph
% Version:            COMSOL 6.1.0.252
% Date:               May 18 2023, 17:42
% Dimension:          3
% Nodes:              2539
% Expressions:        1
% Description:        Surface
% X                       Y                        Z                        imag(emw.Hx)
0.0025000000000000005     0.0061666666666666675    0.005608000000000002     0.20435789098770876
0.0025000000000000005     0.006205555555555556     0.005608000000000002     2.2308322455514645E-14
0.0024754153711986884     0.0061754210656220655    0.005608000000000002     1.8300838167461138
0.0024754153711986884     0.006214309954510956     0.005608000000000002     1.452144455343594
0.0025000000000000005     0.006244444444444446     0.005608000000000002     1.7908387430983493E-14
0.0024754153711986884     0.006253198843399843     0.005608000000000002     1.45214445534359
0.0025000000000000005     0.0062833333333333335    0.005608000000000002     1.3508452406452344E-14
0.0024754153711986884     0.006292087732288733     0.005608000000000002     1.4521444553435854
0.0025                    0.006322222222222223     0.005608000000000001     9.108517381921195E-15
0.002475415371198688      0.006330976621177622     0.005608000000000002     1.4521444553435803
0.0025                    0.006361111111111112     0.005608000000000001     4.70858235739005E-15
0.002475415371198688      0.0063698655100665105    0.005608000000000001     1.8167921086693786
0.0025                    0.0064                   0.005608000000000001     0.5247232756272706
0.0024508307423973764     0.006184175464577464     0.005608000000000002     3.0988583764346607
0.0024508307423973764     0.006223064353466353     0.005608000000000002     2.904288910687166
0.0024508307423973764     0.006261953242355242     0.005608000000000002     2.90428891068716
0.0024508307423973764     0.00630084213124413      0.005608000000000002     2.9042889106871574
0.0024508307423973755     0.006339731020133019     0.005608                 3.10886094171149
0.002426246113596064      0.006192929863532862     0.005608000000000002     4.367632936123211
0.002426246113596064      0.006231818752421752     0.005608000000000002     4.356433366030739
0.002426246113596064      0.00627070764131064      0.005608000000000002     4.356433366030733
0.002426246113596064      0.006309596530199529     0.005608000000000001     4.400929774753603
0.002401661484794752      0.00620168426248826      0.005608000000000001     5.636407495811765
0.002401661484794752      0.006240573151377149     0.005608000000000001     5.808577821374309
0.0024016614847947515     0.0062794620402660374    0.005608                 5.69299860779571
0.00237707685599344       0.006210438661443659     0.005608000000000001     6.90518205550031
0.00237707685599344       0.006249327550332548     0.005608000000000001     6.985067440837823
0.002352492227192128      0.006219193060399057     0.005608000000000001     8.38057554387969
0.0023497723985252427     0.006189526846155775     0.005608000000000001     8.018964324841246
0.002374357027326555      0.006180772447200376     0.005608000000000002     6.905409755985694
0.002347052569858358      0.006159860631912492     0.005608000000000002     8.428239746587277
0.00237163719865967       0.006151106232957093     0.005608000000000001     7.261177677688645
0.002344332741191473      0.0061301944176692085    0.005608000000000001     8.837515168333304
0.0023689173699927854     0.006121440018713811     0.005608000000000002     7.616945599391596
0.0023416129125245883     0.006100528203425926     0.005608000000000001     9.246790590079339
0.0023661975413259003     0.0060917738044705275    0.005608000000000001     7.972713521094555
0.0023388930838577036     0.006070861989182644     0.005608000000000001     9.656066011825372
0.0023634777126590157     0.006062107590227245     0.005608000000000001     8.163663355277638
0.0023361732551908185     0.006041195774939361     0.005608000000000001     9.96214269641951
0.0023989416561278672     0.006172018048244977     0.005608000000000001     5.820005091952158
0.002396221827460982      0.006142351834001695     0.005608000000000002     6.175773013655117
0.0023935019987940975     0.006112685619758413     0.005608000000000002     6.531540935358066
0.0023907821701272124     0.006083019405515129     0.005608000000000001     6.592238051518413
0.0024235262849291793     0.006163263649289579     0.005608000000000002     4.734600427918638
0.0024208064562622946     0.006133597435046297     0.005608000000000002     5.09036834962159
0.0024180866275954095     0.006103931220803015     0.005608000000000002     5.020812747759204
0.0024481109137304913     0.006154509250334181     0.005608000000000002     3.649195763885108
0.002445391085063606      0.006124843036090898     0.005608000000000002     3.449387443999977
0.0024726955425318034     0.006145754851378783     0.005608000000000002     1.8779621402407631
0.002319162382989423      0.006213798391213762     0.005608000000000001     9.401383691299825
0.0023164425543225385     0.006184132176970479     0.005608000000000002     9.039312691012036
0.002285832538786719      0.006208403722028468     0.005608000000000002     9.945988045938478
0.002283112710119834      0.006178737507785185     0.005608000000000001     10.031511152360771
0.0022525026945840144     0.006203009052843172     0.005608000000000001     10.490592400577158
0.0022497828659171293     0.00617334283859989      0.005608000000000002     11.023709613709535
0.00221917285038131       0.006197614383657877     0.005608000000000001     11.03519675521583
0.002216453021714425      0.006167948169414595     0.005608000000000001     12.015908075058292
0.0021858430061786056     0.006192219714472582     0.005608000000000001     11.579801109854472
0.0021831231775117205     0.0061625535002293       0.005608000000000001     12.809777912000033
0.002152513161975901      0.006186825045287288     0.005608000000000001     11.306262516255117
0.0023137227256556534     0.006154465962727196     0.005608                 9.502095612801138
0.002280392881452949      0.006149071293541902     0.005608000000000001     10.494294074149892
0.002247063037250245      0.006143676624356607     0.005608000000000002     11.486492535498641
0.00221373319304754       0.006138281955171312     0.005608                 12.342754493689705
0.002311002896988769      0.006124799748483914     0.005608000000000002     9.964878534590246
0.0022776730527860646     0.006119405079298619     0.005608000000000002     10.95707699593899
0.00224434320858336       0.006114010410113325     0.005608000000000001     11.875731075379374
0.002308283068321884      0.006095133534240632     0.005608000000000001     10.427661456379361
0.002274953224119179      0.0060897388650553354    0.005608                 11.408707657069035
0.002305563239654999      0.006065467319997349     0.005608000000000001     10.941684238758704
0.0023634777126590157     0.006023218701338357     0.005608000000000001     8.107438609607097
0.0023907821701272124     0.006044130516626241     0.005608000000000002     6.464735113542947
0.0023907821701272124     0.006005241627737351     0.005608000000000002     6.6082325636128765
0.0024180866275954095     0.006026153443025236     0.005608000000000002     4.930624959328117
0.0024180866275954095     0.005987264554136347     0.005608000000000002     5.109026517618661
0.002445391085063606      0.006008176369424231     0.005608000000000002     3.3965148051132887
0.002445391085063606      0.005969287480535343     0.005608000000000002     3.609820471624448
0.0024726955425318034     0.005990199295823227     0.005608000000000002     1.8624046508984595
0.002472695542531803      0.005951310406934337     0.005608000000000002     2.110614425630229
0.0025                    0.005972222222222222     0.005608000000000002     0.3282944966836252
0.0025                    0.005933333333333333     0.005608000000000002     0.40760558642401196
0.0024180866275954095     0.006065042331914124     0.005608000000000002     4.76305709176099
0.002445391085063606      0.00604706525831312      0.005608000000000002     3.2289469375461612
0.0024726955425318034     0.0060290881847121156    0.005608000000000002     1.6948367833313316
0.0025                    0.006011111111111111     0.005608000000000002     0.1607266291165037
0.002445391085063606      0.0060859541472020095    0.005608000000000002     3.0613790699790324
0.0024726955425318034     0.006067977073601005     0.005608000000000002     1.5272689157642025
0.0025000000000000005     0.00605                  0.005608000000000002     -0.006841238450627353
0.002472695542531804      0.006106865962489895     0.005608000000000002     1.3597010481970784
0.0025000000000000005     0.0060888888888888885    0.005608000000000002     -0.17440910601775056
0.0025000000000000005     0.006127777777777779     0.005608000000000002     -0.3419769735848827
0.002277777777777778      0.0064                   0.005608                 9.256036789258175
0.002290230186013503      0.0063698655100665105    0.005608000000000001     9.035859456256155
0.002314814814814815      0.006400000000000001     0.005608000000000001     7.781782456389086
0.00232726722305054       0.0063698655100665105    0.005608000000000001     7.567308486102821
0.002302682594249228      0.00633973102013302      0.005608                 9.025750883119585
0.0023397196312862647     0.00633973102013302      0.005608                 7.352834515816561
0.0023151350024849526     0.006309596530199529     0.005608                 9.015642309983008
0.00235217203952199       0.006309596530199529     0.005608000000000001     7.138360545530292
0.002327587410720678      0.006279462040266038     0.005608                 9.005533736846434
0.002364624447757715      0.006279462040266038     0.005608000000000001     6.923886575244034
0.0023400398189564026     0.006249327550332548     0.005608                 8.99542516370986
0.002351851851851852      0.006400000000000001     0.005608                 6.435315275362168
0.0023643042600875767     0.00636986551006651      0.005608                 6.220841305075905
0.002376756668323302      0.006339731020133019     0.005608                 6.006367334789644
0.002389209076559027      0.006309596530199529     0.005608000000000001     5.791893364503377
0.002388888888888889      0.0064                   0.005608                 5.088848094335272
0.002401341297124614      0.0063698655100665105    0.005608                 4.874374124049002
0.0024137937053603387     0.00633973102013302      0.005608000000000001     4.659900153762743
0.002425925925925926      0.006400000000000001     0.005608                 3.7423809133083497
0.002438378334161651      0.0063698655100665105    0.005608000000000001     3.527906943022087
0.002462962962962963      0.0064                   0.005608                 2.395913732281448
0.0023067099747536984     0.006243932881147252     0.005608000000000002     10.031980789363612
0.0022942575665179732     0.006274067371080743     0.005608000000000001     9.83772396535051
0.0022818051582822485     0.006304201861014234     0.005608000000000001     9.643467141337368
0.0022693527500465232     0.006334336350947724     0.005608000000000001     9.449210317324281
0.0022569003418107985     0.006364470840881215     0.005608000000000001     9.440313550127906
0.002273380130550994      0.006238538211961957     0.005608                 10.128991037292185
0.0022609277223152686     0.0062686727018954475    0.005608                 9.934734213279073
0.002248475314079544      0.00629880719182894      0.005608                 9.740477389265951
0.0022360229058438186     0.006328941681762429     0.005608                 9.560696735076558
0.002240050286348289      0.006233143542776663     0.005608000000000001     10.226001285220747
0.002227597878112565      0.006263278032710154     0.005608000000000001     10.031744461207651
0.0022151454698768397     0.006293412522643644     0.005608                 9.681079920025217
0.002206720442145585      0.0062277488735913685    0.005608000000000001     10.323011533149351
0.00219426803390986       0.006257883363524858     0.005608                 9.80146310497386
0.0021733905979428804     0.006222354204406073     0.005608000000000001     9.92184628992251
0.0020555555555555557     0.0064                   0.005608000000000002     -0.004146043997148019
0.0020717151566256135     0.006364470840881215     0.005608000000000002     1.5679286189545087
0.002092592592592593      0.006400000000000001     0.005608000000000002     2.3300436008230108
0.0021087521936626503     0.006364470840881216     0.005608000000000002     3.748769040411846
0.002087874757695671      0.006328941681762431     0.005608000000000002     3.299570174339789
0.0021249117947327078     0.006328941681762429     0.005608000000000002     5.167494480000675
0.0021040343587657283     0.006293412522643644     0.005608000000000002     5.031211729725069
0.002141071395802765      0.006293412522643645     0.005608000000000002     6.586219919589475
0.0021201939598357858     0.006257883363524858     0.005608000000000001     6.762853285110325
0.002157230996872823      0.006257883363524858     0.005608000000000002     8.0049453591783
0.0021363535609058436     0.006222354204406073     0.005608000000000001     8.494494840495594
0.0021296296296296298     0.006400000000000001     0.005608000000000002     3.799269742456223
0.002145789230699687      0.006364470840881215     0.005608000000000001     5.217995182045029
0.0021619488317697446     0.00632894168176243      0.005608000000000001     6.63672062163385
0.0021781084328398024     0.0062934125226436445    0.005608000000000001     8.055446061222684
0.0021666666666666666     0.0064                   0.005608000000000001     5.268495884089438
0.0021828262677367244     0.006364470840881216     0.005608000000000001     6.687221323678253
0.0021989858688067822     0.00632894168176243      0.005608000000000001     8.105946763267063
0.002203703703703704      0.006400000000000001     0.005608000000000001     6.737722025722639
0.0022198633047737612     0.006364470840881215     0.005608000000000001     8.156447465311455
0.002240740740740741      0.0064                   0.005608000000000001     8.206948167355849
0.0021133572042124904     0.006189383293295769     0.005608000000000001     7.910415810155813
0.002097197603142433      0.0062249124524145555    0.005608000000000002     5.94467895719113
0.002081038002072375      0.00626044161153334      0.005608000000000002     3.9001212860094423
0.0020648784010023177     0.006295970770652126     0.005608000000000002     1.8555636148276937
0.00204871879993226       0.006331499929770911     0.005608000000000002     -0.18899405635401922
0.0020325591988622025     0.0063670290888896966    0.005608000000000002     -1.727806064264875
0.00207420124644908       0.006191941541304251     0.005608000000000002     4.897810093261558
0.002058041645379022      0.006227470700423036     0.005608000000000001     2.8548128905250323
0.0020418820443089646     0.006262999859541821     0.005608000000000002     0.8102552193432948
0.002025722443238907      0.006298529018660607     0.005608000000000002     -1.2343024518384023
0.0020095628421688493     0.006334058177779392     0.005608000000000002     -3.0189843329391053
0.0020350452886856688     0.0061944997893127315    0.005608000000000001     1.8852043763672894
0.0020188856876156114     0.006230028948431518     0.005608000000000002     -0.23505317614111632
0.002002726086545554      0.006265558107550303     0.005608000000000002     -2.279610847322791
0.001986566485475496      0.006301087266669088     0.005608000000000002     -4.310162601613353
0.001995889330922258      0.006197058037321213     0.005608000000000001     -1.127401340526919
0.0019797297298522008     0.006232587196439998     0.005608000000000001     -3.3249192428072245
0.001963570128782143      0.006268116355558784     0.005608000000000001     -5.601340870287599
0.001956733373158847      0.006199616285329694     0.005608000000000001     -4.140007057421206
0.0019405737720887897     0.006235145444448479     0.005608000000000001     -6.892519138961812
0.0019175774153954368     0.006202174533338175     0.005608000000000001     -8.26480795749858
0.0018333333333333335     0.006400000000000001     0.005608000000000002     -26.026562309107117
0.0018473740136770176     0.006367029088889697     0.005608000000000002     -22.695744326750603
0.0018703703703703708     0.006400000000000001     0.005608000000000002     -20.74420415835955
0.0018844110507140544     0.006367029088889697     0.005608000000000002     -18.06941392037765
0.0018614146940207012     0.006334058177779393     0.005608000000000002     -19.811659941250866
0.0018984517310577384     0.006334058177779392     0.005608000000000002     -15.394623682395853
0.0018754553743643852     0.006301087266669088     0.005608000000000002     -16.927575555751154
0.001912492411401422      0.006301087266669088     0.005608000000000002     -12.719833444414007
0.0018894960547080689     0.0062681163555587845    0.005608000000000001     -14.043491170251453
0.001926533091745106      0.0062681163555587845    0.005608000000000002     -10.045043206432176
0.0019035367350517527     0.006235145444448479     0.005608000000000001     -11.15940678475172
0.0019074074074074076     0.006400000000000001     0.005608000000000002     -16.53236577851361
0.0019214480877510914     0.0063670290888896966    0.005608000000000002     -13.857575540531741
0.0019354887680947752     0.006334058177779393     0.005608000000000002     -11.18278530254992
0.0019495294484384593     0.006301087266669088     0.005608000000000002     -8.507995064568087
0.0019444444444444446     0.006400000000000001     0.005608000000000002     -12.320527398667668
0.0019584851247881284     0.0063670290888896966    0.005608000000000002     -9.645737160685846
0.0019725258051318125     0.006334058177779392     0.005608000000000002     -6.970946922704023
0.0019814814814814816     0.006400000000000001     0.005608000000000002     -8.10868901882178
0.0019955221618251657     0.0063670290888896966    0.005608000000000002     -5.433898780839957
0.002018518518518519      0.006400000000000001     0.005608000000000002     -3.8968506389758737
0.0018841224438208076     0.006202050092930009     0.005608000000000001     -11.764067196300463
0.0018700817634771238     0.0062350210040403135    0.005608000000000002     -14.478173342153502
0.0018560410831334397     0.006267991915150617     0.005608000000000002     -17.571551875171075
0.001842000402789756      0.006300962826260923     0.005608000000000002     -20.664930408188702
0.001827959722446072      0.0063339337373712265    0.005608000000000002     -23.758308941206266
0.0018139190421023884     0.006366904648481531     0.005608000000000002     -27.124779388966253
0.0018506674722461786     0.006201925652521843     0.005608000000000002     -15.120506816206875
0.0018366267919024946     0.006234896563632146     0.005608000000000001     -18.219624463099777
0.001822586111558811      0.006267867474742452     0.005608000000000002     -21.313002996117408
0.001808545431215127      0.006300838385852756     0.005608000000000002     -24.40638152913503
0.0017945047508714429     0.006333809296963059     0.005608000000000002     -27.68773658337456
0.0018172125006715497     0.006201801212113675     0.005608000000000001     -18.476946436113355
0.0018031718203278656     0.006234772123223981     0.005608000000000002     -21.9610755840461
0.001789131139984182      0.006267743034334285     0.005608000000000002     -25.05445411706373
0.001775090459640498      0.006300713945444588     0.005608000000000002     -28.2506937777828
0.0017837575290969205     0.00620167677170551      0.005608000000000001     -21.833386056019773
0.0017697168487532367     0.006234647682815814     0.005608000000000001     -25.702526704992316
0.0017556761684095526     0.0062676185939261175    0.005608000000000001     -28.81365097219109
0.0017503025575222914     0.006201552331297343     0.005608000000000001     -25.189825675926205
0.0017362618771786078     0.0062345232424076465    0.005608000000000001     -29.376608166599368
0.0017168475859476624     0.0062014278908891765    0.005608000000000001     -28.8062076399984
0.0019028222733859096     0.0061709441976475245    0.005608000000000001     -7.569602010526422
0.0018693673018112806     0.006170819757239359     0.005608000000000002     -10.221555772814234
0.0018359123302366515     0.006170695316831192     0.005608000000000001     -13.19298389168084
0.0018024573586620225     0.006170570876423026     0.005608000000000002     -16.16441201054748
0.0017690023870873936     0.006170446436014859     0.005608000000000001     -19.135840129414117
0.0017355474155127644     0.006170321995606692     0.005608000000000001     -22.1216917886479
0.0018880671313763826     0.0061397138619568754    0.005608000000000002     -5.772715322124641
0.0018546121598017535     0.006139589421548708     0.005608                 -8.299771962163508
0.0018211571882271243     0.006139464981140542     0.005608000000000001     -11.271200081030141
0.0017877022166524954     0.006139340540732376     0.005608000000000002     -14.242628199896746
0.0017542472450778662     0.006139216100324208     0.005608                 -17.227963197267954
0.0018733119893668553     0.006108483526266225     0.005608000000000001     -3.9758286337228568
0.0018398570177922263     0.0061083590858580575    0.005608000000000002     -6.377988151512874
0.0018064020462175974     0.006108234645449892     0.005608000000000002     -9.349416270379496
0.0017729470746429682     0.006108110205041725     0.005608000000000001     -12.334234605888069
0.0018585568473573283     0.006077253190575574     0.005608000000000001     -2.178941945321064
0.0018251018757826994     0.006077128750167408     0.005608000000000001     -4.4562043408621435
0.00179164690420807       0.006077004309759241     0.005608                 -7.440506014508194
0.001843801705347801      0.006046022854884924     0.005608000000000001     -0.38205525691929415
0.001810346733773172      0.006045898414476758     0.005608000000000001     -2.546777423128315
0.001829046563338274      0.006014792519194273     0.005608000000000001     1.5320552825000757
0.001995847393184823      0.006034543278489256     0.005608000000000001     9.907864806335482
0.002021958354650003      0.0060599235729555945    0.005608000000000001     10.128697636033468
0.001982802396886592      0.006062481820964076     0.005608000000000001     6.705696971188988
0.0020089133583517716     0.006087862115430415     0.005608000000000002     6.47302043907876
0.0020480693161151827     0.006085303867421933     0.005608000000000002     10.24562543966516
0.0020350243198169514     0.0061132424098967525    0.005608000000000001     6.812664077293743
0.002074180277580362      0.006110684161888272     0.005608000000000001     10.362553243296812
0.0020611352812821312     0.006138622704363092     0.005608000000000002     7.152307715508766
0.002100291239045542      0.0061360644563546105    0.005608000000000001     10.479481046928505
0.0020872462427473106     0.006164002998829431     0.005608000000000001     7.491951353723735
0.002126402200510721      0.006161444750820949     0.005608000000000001     10.596408850560177
0.001969757400588361      0.006090420363438896     0.005608000000000002     3.7239377992580884
0.0019958683620535404     0.006115800657905234     0.005608                 3.8773187101713713
0.00202197932351872       0.0061411809523715735    0.005608000000000001     4.216962348386377
0.0020480902849839        0.006166561246837912     0.005608000000000002     4.5566059866013635
0.00195671240429013       0.0061183589059137155    0.005608000000000001     0.742178627327158
0.0019828233657553096     0.006143739200380054     0.005608000000000002     1.2816169812640055
0.0020089343272204894     0.006169119494846393     0.005608000000000002     1.6212606194789971
0.001943667407991899      0.006146297448388536     0.005608000000000001     -2.239580544603778
0.001969778369457079      0.006171677742854874     0.005608000000000001     -1.3140847476433741
0.0019306224116936678     0.006174235990863355     0.005608000000000001     -5.221339716534645
0.001968047254877065      0.006031251485273425     0.005608000000000001     8.204512098693534
0.001955002258578834      0.006059190027748245     0.005608000000000002     5.5821900927127075
0.0019419572622806026     0.006087128570223066     0.005608000000000001     2.2143734777581505
0.0019289122659823718     0.006115067112697886     0.005608000000000002     -1.15344313719625
0.0019158672696841408     0.006143005655172706     0.005608000000000001     -4.521259752150749
0.001940247116569307      0.0060279596920575955    0.005608000000000002     6.876865556748127
0.0019272021202710757     0.006055898234532415     0.005608                 3.886363043911061
0.0019141571239728447     0.006083836777007235     0.005608000000000001     0.5185464289565891
0.0019011121276746137     0.006111775319482055     0.005608000000000002     -2.8492701859978427
0.0019124469782615485     0.006024667898841764     0.005608000000000001     5.549219014802698
0.0018994019819633175     0.006052606441316584     0.005608000000000002     2.1905359951094976
0.0018863569856650865     0.0060805449837914045    0.005608000000000002     -1.1772806198450108
0.0018846468399537904     0.006021376105625934     0.005608000000000001     4.2215724728572885
0.0018716018436555596     0.006049314648100755     0.005608000000000001     0.4947089463078532
0.0018568467016460322     0.006018084312410104     0.005608000000000001     2.8939259309118652
0.0023207609055080096     0.00582793289413276      0.005608000000000001     9.769107856876333
0.0023506340879233412     0.005806610745110634     0.005608000000000001     7.742922415523866
0.0023506340879233412     0.005845499633999523     0.005608000000000001     7.996017367339072
0.0023805072703386733     0.005824177484977397     0.005608000000000002     6.155651737563334
0.002380507270338673      0.005785288596088507     0.005608000000000001     6.183599045674096
0.0024103804527540046     0.005802855335955269     0.005608000000000001     4.616738803172499
0.0024103804527540046     0.00576396644706638      0.005608                 4.624275675824326
0.0024402536351693367     0.005781533186933143     0.005608000000000001     3.077825868781667
0.0024402536351693363     0.005742644298044254     0.005608                 3.0649523059745576
0.0024701268175846684     0.005760211037911016     0.005608000000000001     1.538912934390834
0.002470126817584668      0.005721322149022127     0.005608000000000001     1.5056289361247845
0.0025                    0.00573888888888889      0.005608000000000001     0
0.0025                    0.0057                   0.005608                 0.275903965846754
0.002380507270338673      0.005863066373866285     0.005608000000000002     6.469509333373383
0.0024103804527540046     0.0058417442248441575    0.005608000000000001     4.616738803172499
0.0024402536351693363     0.005820422075822031     0.005608000000000001     3.077825868781667
0.0024701268175846684     0.0057990999267999045    0.005608000000000001     1.538912934390834
0.0024999999999999996     0.0057777777777777775    0.005608                 0
0.0024103804527540046     0.005880633113733047     0.005608000000000002     4.9430012994076975
0.0024402536351693363     0.00585931096471092      0.005608000000000002     3.077825868781667
0.0024701268175846684     0.005837988815688793     0.005608000000000002     1.538912934390834
0.0025                    0.005816666666666666     0.005608000000000001     0
0.0024402536351693363     0.005898199853599809     0.005608000000000002     3.416493265442008
0.0024701268175846684     0.005876877704577682     0.005608000000000002     1.538912934390834
0.0024999999999999996     0.005855555555555555     0.005608000000000001     0
0.002470126817584668      0.00591576659346657      0.005608000000000002     1.8899852314763181
0.0025                    0.005894444444444444     0.005608000000000002     0
0.0024680553445218063     0.005682758612112168     0.005608000000000001     0.5027654655754306
0.002438182162106475      0.005704080761134295     0.005608000000000001     1.8542223459955411
0.002408308979691143      0.00572540291015642      0.005608                 3.4339561513042645
0.0023784357972758113     0.005746725059178547     0.005608000000000001     5.013689956612957
0.0023485626148604796     0.005768047208200674     0.005608000000000001     6.593423761921675
0.0023186894324451475     0.005789369357222801     0.005608000000000001     8.458383745269483
0.002436110689043613      0.005665517224224335     0.005608                 0.5916749823807239
0.0024062375066282804     0.0056868393732464615    0.005608                 2.2360997541323644
0.0023763643242129488     0.005708161522268588     0.005608                 3.815833559441071
0.002346491141797617      0.005729483671290715     0.005608000000000001     5.395567364749765
0.0023166179593822854     0.005750805820312841     0.005608                 7.1281714736953425
0.002404166033565419      0.005648275836336503     0.005608                 0.6805844991860225
0.002374292851150087      0.00566959798535863      0.005608                 2.617977162269172
0.0023444196687347554     0.005690920134380756     0.005608000000000001     4.197710967577889
0.0023145464863194238     0.005712242283402882     0.005608000000000001     5.797959202121218
0.002372221378087225      0.005631034448448671     0.005608                 0.7694940159913184
0.0023423481956718934     0.0056523565974707975    0.005608000000000001     2.999854570405975
0.0023124750132565612     0.005673678746492923     0.005608                 4.467746930547078
0.0023402767226090313     0.005613793060560837     0.005608                 0.8584035327966189