% Model:              stripline_filter_simple_decomp_new_mesh.mph
% Version:            COMSOL 6.1.0.252
% Date:               May 18 2023, 17:42
% Dimension:          3
% Nodes:              2539
% Expressions:        1
% Description:        Surface
% X                       Y                        Z                        imag(emw.Hy)
0.0025000000000000005     0.0061666666666666675    0.005608000000000002     -14.958089869192428
0.0025000000000000005     0.006205555555555556     0.005608000000000002     -12.476976166186278
0.0024754153711986884     0.0061754210656220655    0.005608000000000002     -14.180646188555627
0.0024754153711986884     0.006214309954510956     0.005608000000000002     -11.9883905659003
0.0025000000000000005     0.006244444444444446     0.005608000000000002     -10.237822769059395
0.0024754153711986884     0.006253198843399843     0.005608000000000002     -9.749237168773421
0.0025000000000000005     0.0062833333333333335    0.005608000000000002     -7.99866937193252
0.0024754153711986884     0.006292087732288733     0.005608000000000002     -7.510083771646542
0.0025                    0.006322222222222223     0.005608000000000001     -5.759515974805634
0.002475415371198688      0.006330976621177622     0.005608000000000002     -5.270930374519658
0.0025                    0.006361111111111112     0.005608000000000001     -3.520362577678757
0.002475415371198688      0.0063698655100665105    0.005608000000000001     -2.546211071002958
0.0025                    0.0064                   0.005608000000000001     -0.6406045902759395
0.0024508307423973764     0.006184175464577464     0.005608000000000002     -13.838984764444662
0.0024508307423973764     0.006223064353466353     0.005608000000000002     -11.499804965614329
0.0024508307423973764     0.006261953242355242     0.005608000000000002     -9.260651568487447
0.0024508307423973764     0.00630084213124413      0.005608000000000002     -7.021498171360566
0.0024508307423973755     0.006339731020133019     0.005608                 -4.451817551729979
0.002426246113596064      0.006192929863532862     0.005608000000000002     -13.497323340333695
0.002426246113596064      0.006231818752421752     0.005608000000000002     -11.011219365328351
0.002426246113596064      0.00627070764131064      0.005608000000000002     -8.772065968201472
0.002426246113596064      0.006309596530199529     0.005608000000000001     -6.357424032456997
0.002401661484794752      0.00620168426248826      0.005608000000000001     -13.15566191622273
0.002401661484794752      0.006240573151377149     0.005608000000000001     -10.522633765042375
0.0024016614847947515     0.0062794620402660374    0.005608                 -8.263030513184015
0.00237707685599344       0.006210438661443659     0.005608000000000001     -12.814000492111767
0.00237707685599344       0.006249327550332548     0.005608000000000001     -10.168636993911036
0.002352492227192128      0.006219193060399057     0.005608000000000001     -12.547268489410667
0.0023497723985252427     0.006189526846155775     0.005608000000000001     -13.647643136922548
0.002374357027326555      0.006180772447200376     0.005608000000000002     -13.952983866322926
0.002347052569858358      0.006159860631912492     0.005608000000000002     -14.212248197388316
0.00237163719865967       0.006151106232957093     0.005608000000000001     -14.551168310305586
0.002344332741191473      0.0061301944176692085    0.005608000000000001     -14.776853257854075
0.0023689173699927854     0.006121440018713811     0.005608000000000002     -15.149352754288255
0.0023416129125245883     0.006100528203425926     0.005608000000000001     -15.341458318319837
0.0023661975413259003     0.0060917738044705275    0.005608000000000001     -15.747537198270932
0.0023388930838577036     0.006070861989182644     0.005608000000000001     -15.906063378785598
0.0023634777126590157     0.006062107590227245     0.005608000000000001     -16.292036404533714
0.0023361732551908185     0.006041195774939361     0.005608000000000001     -16.47632704410922
0.0023989416561278672     0.006172018048244977     0.005608000000000001     -14.147721114258882
0.002396221827460982      0.006142351834001695     0.005608000000000002     -14.74590555824155
0.0023935019987940975     0.006112685619758413     0.005608000000000002     -15.34409000222421
0.0023907821701272124     0.006083019405515129     0.005608000000000001     -16.04944312805339
0.0024235262849291793     0.006163263649289579     0.005608000000000002     -14.34245836219483
0.0024208064562622946     0.006133597435046297     0.005608000000000002     -14.940642806177499
0.0024180866275954095     0.006103931220803015     0.005608000000000002     -15.806849851573052
0.0024481109137304913     0.006154509250334181     0.005608000000000002     -14.537195610130787
0.002445391085063606      0.006124843036090898     0.005608000000000002     -15.564256575092728
0.0024726955425318034     0.006145754851378783     0.005608000000000002     -15.3216632986124
0.002319162382989423      0.006213798391213762     0.005608000000000001     -12.831507808980032
0.0023164425543225385     0.006184132176970479     0.005608000000000002     -13.773410917208647
0.002285832538786719      0.006208403722028468     0.005608000000000002     -12.949118956273598
0.002283112710119834      0.006178737507785185     0.005608000000000001     -14.009782178959169
0.0022525026945840144     0.006203009052843172     0.005608000000000001     -13.066730103567156
0.0022497828659171293     0.00617334283859989      0.005608000000000002     -14.246153440709683
0.00221917285038131       0.006197614383657877     0.005608000000000001     -13.184341250860722
0.002216453021714425      0.006167948169414595     0.005608000000000001     -14.482524702460193
0.0021858430061786056     0.006192219714472582     0.005608000000000001     -13.30195239815428
0.0021831231775117205     0.0061625535002293       0.005608000000000001     -14.824258948242287
0.002152513161975901      0.006186825045287288     0.005608000000000001     -13.485092071308761
0.0023137227256556534     0.006154465962727196     0.005608                 -14.304436594157504
0.002280392881452949      0.006149071293541902     0.005608000000000001     -14.54080785590802
0.002247063037250245      0.006143676624356607     0.005608000000000002     -14.777179117658534
0.00221373319304754       0.006138281955171312     0.005608                 -15.090112187147337
0.002311002896988769      0.006124799748483914     0.005608000000000002     -14.835462271106358
0.0022776730527860646     0.006119405079298619     0.005608000000000002     -15.071833532856871
0.00224434320858336       0.006114010410113325     0.005608000000000001     -15.355965426052375
0.002308283068321884      0.006095133534240632     0.005608000000000001     -15.366487948055205
0.002274953224119179      0.0060897388650553354    0.005608                 -15.621818664957422
0.002305563239654999      0.006065467319997349     0.005608000000000001     -15.887671903862467
0.0023634777126590157     0.006023218701338357     0.005608000000000001     -16.38707329141918
0.0023907821701272124     0.006044130516626241     0.005608000000000002     -16.118294686362006
0.0023907821701272124     0.006005241627737351     0.005608000000000002     -16.136049786051124
0.0024180866275954095     0.006026153443025236     0.005608000000000002     -15.998238205910173
0.0024180866275954095     0.005987264554136347     0.005608000000000002     -15.885026280683064
0.002445391085063606      0.006008176369424231     0.005608000000000002     -15.878181725458347
0.002445391085063606      0.005969287480535343     0.005608000000000002     -15.634002775315004
0.0024726955425318034     0.005990199295823227     0.005608000000000002     -15.758125245006518
0.002472695542531803      0.005951310406934337     0.005608000000000002     -15.38297926994694
0.0025                    0.005972222222222222     0.005608000000000002     -15.63806876455469
0.0025                    0.005933333333333333     0.005608000000000002     -15.205242258798384
0.0024180866275954095     0.006065042331914124     0.005608000000000002     -16.036555329448063
0.002445391085063606      0.00604706525831312      0.005608000000000002     -15.91649884899623
0.0024726955425318034     0.0060290881847121156    0.005608000000000002     -15.796442368544401
0.0025                    0.006011111111111111     0.005608000000000002     -15.676385888092572
0.002445391085063606      0.0060859541472020095    0.005608000000000002     -15.954815972534114
0.0024726955425318034     0.006067977073601005     0.005608000000000002     -15.834759492082283
0.0025000000000000005     0.00605                  0.005608000000000002     -15.714703011630451
0.002472695542531804      0.006106865962489895     0.005608000000000002     -15.87307661562017
0.0025000000000000005     0.0060888888888888885    0.005608000000000002     -15.753020135168336
0.0025000000000000005     0.006127777777777779     0.005608000000000002     -15.791337258706218
0.002277777777777778      0.0064                   0.005608                 -0.3504155455284557
0.002290230186013503      0.0063698655100665105    0.005608000000000001     -2.6323410882315
0.002314814814814815      0.006400000000000001     0.005608000000000001     0
0.00232726722305054       0.0063698655100665105    0.005608000000000001     -2.0606451646131347
0.002302682594249228      0.00633973102013302      0.005608                 -4.584437903839446
0.0023397196312862647     0.00633973102013302      0.005608                 -4.1212903292262695
0.0023151350024849526     0.006309596530199529     0.005608                 -6.536534719447391
0.00235217203952199       0.006309596530199529     0.005608000000000001     -6.181935493839404
0.002327587410720678      0.006279462040266038     0.005608                 -8.48863153505534
0.002364624447757715      0.006279462040266038     0.005608000000000001     -8.242580658452539
0.0023400398189564026     0.006249327550332548     0.005608                 -10.440728350663289
0.002351851851851852      0.006400000000000001     0.005608                 0
0.0023643042600875767     0.00636986551006651      0.005608                 -2.0606451646131347
0.002376756668323302      0.006339731020133019     0.005608                 -4.1212903292262695
0.002389209076559027      0.006309596530199529     0.005608000000000001     -6.181935493839404
0.002388888888888889      0.0064                   0.005608                 0
0.002401341297124614      0.0063698655100665105    0.005608                 -2.0606451646131347
0.0024137937053603387     0.00633973102013302      0.005608000000000001     -4.1212903292262695
0.002425925925925926      0.006400000000000001     0.005608                 0
0.002438378334161651      0.0063698655100665105    0.005608000000000001     -2.0606451646131347
0.002462962962962963      0.0064                   0.005608                 0
0.0023067099747536984     0.006243932881147252     0.005608000000000002     -10.57708191109751
0.0022942575665179732     0.006274067371080743     0.005608000000000001     -8.73353344449475
0.0022818051582822485     0.006304201861014234     0.005608000000000001     -6.889984977891995
0.0022693527500465232     0.006334336350947724     0.005608000000000001     -5.046436511289237
0.0022569003418107985     0.006364470840881215     0.005608000000000001     -2.5633268274492815
0.002273380130550994      0.006238538211961957     0.005608                 -10.57593294393412
0.0022609277223152686     0.0062686727018954475    0.005608                 -8.732384477331362
0.002248475314079544      0.00629880719182894      0.005608                 -6.888836010728609
0.0022360229058438186     0.006328941681762429     0.005608                 -4.601030336605894
0.002240050286348289      0.006233143542776663     0.005608000000000001     -10.574783976770732
0.002227597878112565      0.006263278032710154     0.005608000000000001     -8.731235510167979
0.0022151454698768397     0.006293412522643644     0.005608                 -6.638733845762488
0.002206720442145585      0.0062277488735913685    0.005608000000000001     -10.573635009607347
0.00219426803390986       0.006257883363524858     0.005608                 -8.676437354919102
0.0021733905979428804     0.006222354204406073     0.005608000000000001     -10.714140864075702
0.0020555555555555557     0.0064                   0.005608000000000002     -0.934857387210295
0.0020717151566256135     0.006364470840881215     0.005608000000000002     -3.3238475384691015
0.002092592592592593      0.006400000000000001     0.005608000000000002     -0.784549762265094
0.0021087521936626503     0.006364470840881216     0.005608000000000002     -2.798798946953557
0.002087874757695671      0.006328941681762431     0.005608000000000002     -5.245408996122799
0.0021249117947327078     0.006328941681762429     0.005608000000000002     -4.813048131642029
0.0021040343587657283     0.006293412522643644     0.005608000000000002     -7.166970453776464
0.002141071395802765      0.006293412522643645     0.005608000000000002     -6.827297316330488
0.0021201939598357858     0.006257883363524858     0.005608000000000001     -9.088531911430149
0.002157230996872823      0.006257883363524858     0.005608000000000002     -8.84154650101897
0.0021363535609058436     0.006222354204406073     0.005608000000000001     -11.010093369083823
0.0021296296296296298     0.006400000000000001     0.005608000000000002     -0.5657914280797042
0.002145789230699687      0.006364470840881215     0.005608000000000001     -2.5800406127681805
0.0021619488317697446     0.00632894168176243      0.005608000000000001     -4.594289797456658
0.0021781084328398024     0.0062934125226436445    0.005608000000000001     -6.608538982145111
0.0021666666666666666     0.0064                   0.005608000000000001     -0.3470330938943463
0.0021828262677367244     0.006364470840881216     0.005608000000000001     -2.3612822785828174
0.0021989858688067822     0.00632894168176243      0.005608000000000001     -4.375531463271299
0.002203703703703704      0.006400000000000001     0.005608000000000001     -0.12827475970897384
0.0022198633047737612     0.006364470840881215     0.005608000000000001     -2.1425239443974458
0.002240740740740741      0.0064                   0.005608000000000001     0.09048357447639355
0.0021133572042124904     0.006189383293295769     0.005608000000000001     -12.105180640720986
0.002097197603142433      0.0062249124524145555    0.005608000000000002     -10.390400191806751
0.002081038002072375      0.00626044161153334      0.005608000000000002     -8.561526461187864
0.0020648784010023177     0.006295970770652126     0.005608000000000002     -6.732652730568998
0.00204871879993226       0.006331499929770911     0.005608000000000002     -4.9037789999501005
0.0020325591988622025     0.0063670290888896966    0.005608000000000002     -2.405763460174679
0.00207420124644908       0.006191941541304251     0.005608000000000002     -11.572473311970224
0.002058041645379022      0.006227470700423036     0.005608000000000001     -9.835167665338664
0.0020418820443089646     0.006262999859541821     0.005608000000000002     -8.006293934719768
0.002025722443238907      0.006298529018660607     0.005608000000000002     -6.1774202041008905
0.0020095628421688493     0.006334058177779392     0.005608000000000002     -3.9108948877591394
0.0020350452886856688     0.0061944997893127315    0.005608000000000001     -11.039765983219441
0.0020188856876156114     0.006230028948431518     0.005608000000000002     -9.279935138870565
0.002002726086545554      0.006265558107550303     0.005608000000000002     -7.451061408251676
0.001986566485475496      0.006301087266669088     0.005608000000000002     -5.41602631534362
0.001995889330922258      0.006197058037321213     0.005608000000000001     -10.50705865446866
0.0019797297298522008     0.006232587196439998     0.005608000000000001     -8.724702612402492
0.001963570128782143      0.006268116355558784     0.005608000000000001     -6.921157742928062
0.001956733373158847      0.006199616285329694     0.005608000000000001     -9.97435132571788
0.0019405737720887897     0.006235145444448479     0.005608000000000001     -8.426289170512515
0.0019175774153954368     0.006202174533338175     0.005608000000000001     -9.84664552562183
0.0018333333333333335     0.006400000000000001     0.005608000000000002     -0.33630547249517734
0.0018473740136770176     0.006367029088889697     0.005608000000000002     -2.0603953727243542
0.0018703703703703708     0.006400000000000001     0.005608000000000002     7.79912608559314E-14
0.0018844110507140544     0.006367029088889697     0.005608000000000002     -1.7366216510180779
0.0018614146940207012     0.006334058177779393     0.005608000000000002     -3.6163325367058894
0.0018984517310577384     0.006334058177779392     0.005608000000000002     -3.4732433020362192
0.0018754553743643852     0.006301087266669088     0.005608000000000002     -5.172269700687436
0.001912492411401422      0.006301087266669088     0.005608000000000002     -5.209864953054394
0.0018894960547080689     0.0062681163555587845    0.005608000000000001     -6.728206864668968
0.001926533091745106      0.0062681163555587845    0.005608000000000002     -6.9464866040725095
0.0019035367350517527     0.006235145444448479     0.005608000000000001     -8.284144028650513
0.0019074074074074076     0.006400000000000001     0.005608000000000002     6.159497808542415E-14
0.0019214480877510914     0.0063670290888896966    0.005608000000000002     -1.7366216510180954
0.0019354887680947752     0.006334058177779393     0.005608000000000002     -3.473243302036236
0.0019495294484384593     0.006301087266669088     0.005608000000000002     -5.209864953054412
0.0019444444444444446     0.006400000000000001     0.005608000000000002     4.519869531491694E-14
0.0019584851247881284     0.0063670290888896966    0.005608000000000002     -1.7366216510181
0.0019725258051318125     0.006334058177779392     0.005608000000000002     -3.473243302036263
0.0019814814814814816     0.006400000000000001     0.005608000000000002     2.880241254440949E-14
0.0019955221618251657     0.0063670290888896966    0.005608000000000002     -1.7366216510181178
0.002018518518518519      0.006400000000000001     0.005608000000000002     1.2406129773902478E-14
0.0018841224438208076     0.006202050092930009     0.005608000000000001     -9.070402000331963
0.0018700817634771238     0.0062350210040403135    0.005608000000000002     -7.28289964774611
0.0018560410831334397     0.006267991915150617     0.005608000000000002     -5.907646970801192
0.001842000402789756      0.006300962826260923     0.005608000000000002     -4.53239429385626
0.001827959722446072      0.0063339337373712265    0.005608000000000002     -3.1571416169113453
0.0018139190421023884     0.006366904648481531     0.005608000000000002     -1.3490479101008144
0.0018506674722461786     0.006201925652521843     0.005608000000000002     -8.404286921226662
0.0018366267919024946     0.006234896563632146     0.005608000000000001     -6.680619493281881
0.001822586111558811      0.006267867474742452     0.005608000000000002     -5.3053668163369645
0.001808545431215127      0.006300838385852756     0.005608000000000002     -3.930114139392046
0.0017945047508714429     0.006333809296963059     0.005608000000000002     -2.193637611458814
0.0018172125006715497     0.006201801212113675     0.005608000000000001     -7.7381718421213925
0.0018031718203278656     0.006234772123223981     0.005608000000000002     -6.078339338817647
0.001789131139984182      0.006267743034334285     0.005608000000000002     -4.703086661872739
0.001775090459640498      0.006300713945444588     0.005608000000000002     -3.0382273128167965
0.0017837575290969205     0.00620167677170551      0.005608000000000001     -7.072056763016111
0.0017697168487532367     0.006234647682815814     0.005608000000000001     -5.476059184353426
0.0017556761684095526     0.0062676185939261175    0.005608000000000001     -3.882817014174776
0.0017503025575222914     0.006201552331297343     0.005608000000000001     -6.405941683910849
0.0017362618771786078     0.0062345232424076465    0.005608000000000001     -4.727406715532715
0.0017168475859476624     0.0062014278908891765    0.005608000000000001     -5.798058459292666
0.0019028222733859096     0.0061709441976475245    0.005608000000000001     -10.41579899341135
0.0018693673018112806     0.006170819757239359     0.005608000000000002     -9.65824822632062
0.0018359123302366515     0.006170695316831192     0.005608000000000001     -8.928298222574297
0.0018024573586620225     0.006170570876423026     0.005608000000000002     -8.198348218827967
0.0017690023870873936     0.006170446436014859     0.005608000000000001     -7.4683982150816295
0.0017355474155127644     0.006170321995606692     0.005608000000000001     -6.631452328751859
0.0018880671313763826     0.0061397138619568754    0.005608000000000002     -10.573386599556363
0.0018546121598017535     0.006139589421548708     0.005608                 -9.83384477666838
0.0018211571882271243     0.006139464981140542     0.005608000000000001     -9.103894772922052
0.0017877022166524954     0.006139340540732376     0.005608000000000002     -8.373944769175708
0.0017542472450778662     0.006139216100324208     0.005608                 -7.551526265626679
0.0018733119893668553     0.006108483526266225     0.005608000000000001     -10.730974205701377
0.0018398570177922263     0.0061083590858580575    0.005608000000000002     -10.009441327016141
0.0018064020462175974     0.006108234645449892     0.005608000000000002     -9.279491323269813
0.0017729470746429682     0.006108110205041725     0.005608000000000001     -8.471600202501467
0.0018585568473573283     0.006077253190575574     0.005608000000000001     -10.888561811846408
0.0018251018757826994     0.006077128750167408     0.005608000000000001     -10.185037877363875
0.00179164690420807       0.006077004309759241     0.005608                 -9.391674139376294
0.001843801705347801      0.006046022854884924     0.005608000000000001     -11.04614941799141
0.001810346733773172      0.006045898414476758     0.005608000000000001     -10.31174807625104
0.001829046563338274      0.006014792519194273     0.005608000000000001     -11.2594618383781
0.001995847393184823      0.006034543278489256     0.005608000000000001     -14.697031196062293
0.002021958354650003      0.0060599235729555945    0.005608000000000001     -14.324440253344653
0.001982802396886592      0.006062481820964076     0.005608000000000001     -14.047156173285366
0.0020089133583517716     0.006087862115430415     0.005608000000000002     -13.9905955363822
0.0020480693161151827     0.006085303867421933     0.005608000000000002     -14.159615991188574
0.0020350243198169514     0.0061132424098967525    0.005608000000000001     -13.490718492040745
0.002074180277580362      0.006110684161888272     0.005608000000000001     -13.994791729032496
0.0020611352812821312     0.006138622704363092     0.005608000000000002     -12.990841447699273
0.002100291239045542      0.0061360644563546105    0.005608000000000001     -13.829967466876413
0.0020872462427473106     0.006164002998829431     0.005608000000000001     -12.490964403357808
0.002126402200510721      0.006161444750820949     0.005608000000000001     -13.665143204720332
0.001969757400588361      0.006090420363438896     0.005608000000000002     -13.21212471849454
0.0019958683620535404     0.006115800657905234     0.005608                 -12.980536361007282
0.00202197932351872       0.0061411809523715735    0.005608000000000001     -12.480659316665822
0.0020480902849839        0.006166561246837912     0.005608000000000002     -11.980782272324344
0.00195671240429013       0.0061183589059137155    0.005608000000000001     -12.377093263703717
0.0019828233657553096     0.006143739200380054     0.005608000000000002     -11.970477185632364
0.0020089343272204894     0.006169119494846393     0.005608000000000002     -11.470600141290888
0.001943667407991899      0.006146297448388536     0.005608000000000001     -11.54206180891289
0.001969778369457079      0.006171677742854874     0.005608000000000001     -10.960418010257433
0.0019306224116936678     0.006174235990863355     0.005608000000000001     -10.707030354122079
0.001968047254877065      0.006031251485273425     0.005608000000000001     -13.900543819440987
0.001955002258578834      0.006059190027748245     0.005608000000000002     -13.083414693582608
0.0019419572622806026     0.006087128570223066     0.005608000000000001     -12.423410959375875
0.0019289122659823718     0.006115067112697886     0.005608000000000002     -11.763407225169143
0.0019158672696841408     0.006143005655172706     0.005608000000000001     -11.103403490962474
0.001940247116569307      0.0060279596920575955    0.005608000000000002     -13.357774782253891
0.0019272021202710757     0.006055898234532415     0.005608                 -12.562989621318184
0.0019141571239728447     0.006083836777007235     0.005608000000000001     -11.902985887111436
0.0019011121276746137     0.006111775319482055     0.005608000000000002     -11.242982152904748
0.0019124469782615485     0.006024667898841764     0.005608000000000001     -12.815005745066811
0.0018994019819633175     0.006052606441316584     0.005608000000000002     -12.042564549053711
0.0018863569856650865     0.0060805449837914045    0.005608000000000002     -11.38256081484697
0.0018846468399537904     0.006021376105625934     0.005608000000000001     -12.272236707879731
0.0018716018436555596     0.006049314648100755     0.005608000000000001     -11.522139476789281
0.0018568467016460322     0.006018084312410104     0.005608000000000001     -11.729467670692664
0.0023207609055080096     0.00582793289413276      0.005608000000000001     -10.428195081508399
0.0023506340879233412     0.005806610745110634     0.005608000000000001     -8.680368607859501
0.0023506340879233412     0.005845499633999523     0.005608000000000001     -11.42200215813806
0.0023805072703386733     0.005824177484977397     0.005608000000000002     -9.6786381684456
0.002380507270338673      0.005785288596088507     0.005608000000000001     -7.208236809471955
0.0024103804527540046     0.005802855335955269     0.005608000000000001     -8.230100983663075
0.0024103804527540046     0.00576396644706638      0.005608                 -5.7361050110844065
0.0024402536351693367     0.005781533186933143     0.005608000000000001     -6.781563798880551
0.0024402536351693363     0.005742644298044254     0.005608                 -4.263973212696859
0.0024701268175846684     0.005760211037911016     0.005608000000000001     -5.3330266140980225
0.002470126817584668      0.005721322149022127     0.005608000000000001     -2.7918414143093138
0.0025                    0.00573888888888889      0.005608000000000001     -3.8844894293154937
0.0025                    0.0057                   0.005608                 -0.7726270465630402
0.002380507270338673      0.005863066373866285     0.005608000000000002     -12.139199240048285
0.0024103804527540046     0.0058417442248441575    0.005608000000000001     -10.523566147247452
0.0024402536351693363     0.005820422075822031     0.005608000000000001     -9.07502896246493
0.0024701268175846684     0.0057990999267999045    0.005608000000000001     -7.626491777682401
0.0024999999999999996     0.0057777777777777775    0.005608                 -6.177954592899876
0.0024103804527540046     0.005880633113733047     0.005608000000000002     -12.856396321958506
0.0024402536351693363     0.00585931096471092      0.005608000000000002     -11.368494126049306
0.0024701268175846684     0.005837988815688793     0.005608000000000002     -9.91995694126678
0.0025                    0.005816666666666666     0.005608000000000001     -8.471419756484254
0.0024402536351693363     0.005898199853599809     0.005608000000000002     -13.573593403868733
0.0024701268175846684     0.005876877704577682     0.005608000000000002     -12.213422104851158
0.0024999999999999996     0.005855555555555555     0.005608000000000001     -10.764884920068635
0.002470126817584668      0.00591576659346657      0.005608000000000002     -14.290790485778949
0.0025                    0.005894444444444444     0.005608000000000002     -13.058350083653012
0.0024680553445218063     0.005682758612112168     0.005608000000000001     0.5934188213707696
0.002438182162106475      0.005704080761134295     0.005608000000000001     -1.4300208486405066
0.002408308979691143      0.00572540291015642      0.005608                 -2.92574726063307
0.0023784357972758113     0.005746725059178547     0.005608000000000001     -4.42147367262564
0.0023485626148604796     0.005768047208200674     0.005608000000000001     -5.917200084618207
0.0023186894324451475     0.005789369357222801     0.005608000000000001     -7.089296657492673
0.002436110689043613      0.005665517224224335     0.005608                 1.550266079720544
0.0024062375066282804     0.0056868393732464615    0.005608                 -0.3159203191760257
0.0023763643242129488     0.005708161522268588     0.005608                 -1.8116467311685946
0.002346491141797617      0.005729483671290715     0.005608000000000001     -3.3073731431611657
0.0023166179593822854     0.005750805820312841     0.005608                 -4.613774030044227
0.002404166033565419      0.005648275836336503     0.005608                 2.5071133380703166
0.002374292851150087      0.00566959798535863      0.005608                 0.7981802102884555
0.0023444196687347554     0.005690920134380756     0.005608000000000001     -0.6975462017041149
0.0023145464863194238     0.005712242283402882     0.005608000000000001     -2.1382514025957726
0.002372221378087225      0.005631034448448671     0.005608                 3.463960596420086