% Model:              stripline_filter_simple_decomp_new_mesh.mph
% Version:            COMSOL 6.1.0.252
% Date:               May 18 2023, 17:44
% Dimension:          3
% Nodes:              2539
% Expressions:        1
% Description:        Surface
% X                       Y                        Z                        real(emw.Hz)
0.0025000000000000005     0.0061666666666666675    0.005608000000000002     -54.51592665022944
0.0025000000000000005     0.006205555555555556     0.005608000000000002     -53.01637368156335
0.0024754153711986884     0.0061754210656220655    0.005608000000000002     -52.24736920739102
0.0024754153711986884     0.006214309954510956     0.005608000000000002     -51.08010685577992
0.0025000000000000005     0.006244444444444446     0.005608000000000002     -52.88998586136458
0.0024754153711986884     0.006253198843399843     0.005608000000000002     -50.95371903558116
0.0025000000000000005     0.0062833333333333335    0.005608000000000002     -52.76359804116582
0.0024754153711986884     0.006292087732288733     0.005608000000000002     -50.82733121538239
0.0025                    0.006322222222222223     0.005608000000000001     -52.637210220967035
0.002475415371198688      0.006330976621177622     0.005608000000000002     -50.700943395183614
0.0025                    0.006361111111111112     0.005608000000000001     -52.510822400768284
0.002475415371198688      0.0063698655100665105    0.005608000000000001     -52.765229320952024
0.0025                    0.0064                   0.005608000000000001     -55.42572542625771
0.0024508307423973764     0.006184175464577464     0.005608000000000002     -49.71779729721283
0.0024508307423973764     0.006223064353466353     0.005608000000000002     -49.1438400299965
0.0024508307423973764     0.006261953242355242     0.005608000000000002     -49.017452209797725
0.0024508307423973764     0.00630084213124413      0.005608000000000002     -48.89106438959897
0.0024508307423973755     0.006339731020133019     0.005608                 -50.10473321564629
0.002426246113596064      0.006192929863532862     0.005608000000000002     -47.18822538703463
0.002426246113596064      0.006231818752421752     0.005608000000000002     -47.20757320421306
0.002426246113596064      0.00627070764131064      0.005608000000000002     -47.08118538401429
0.002426246113596064      0.006309596530199529     0.005608000000000001     -47.4442371103406
0.002401661484794752      0.00620168426248826      0.005608000000000001     -44.65865347685646
0.002401661484794752      0.006240573151377149     0.005608000000000001     -45.271306378429635
0.0024016614847947515     0.0062794620402660374    0.005608                 -44.78374100503489
0.00237707685599344       0.006210438661443659     0.005608000000000001     -42.12908156667826
0.00237707685599344       0.006249327550332548     0.005608000000000001     -42.1232448997292
0.002352492227192128      0.006219193060399057     0.005608000000000001     -38.595888743331884
0.0023497723985252427     0.006189526846155775     0.005608000000000001     -37.387841646220224
0.002374357027326555      0.006180772447200376     0.005608000000000002     -40.64540188783392
0.002347052569858358      0.006159860631912492     0.005608000000000002     -37.436480035119956
0.00237163719865967       0.006151106232957093     0.005608000000000001     -40.494068015156294
0.002344332741191473      0.0061301944176692085    0.005608000000000001     -37.48511842401975
0.0023689173699927854     0.006121440018713811     0.005608000000000002     -40.34273414247869
0.0023416129125245883     0.006100528203425926     0.005608000000000001     -37.533756812919506
0.0023661975413259003     0.0060917738044705275    0.005608000000000001     -40.19140026980108
0.0023388930838577036     0.006070861989182644     0.005608000000000001     -37.582395201819274
0.0023634777126590157     0.006062107590227245     0.005608000000000001     -40.99041272334814
0.0023361732551908185     0.006041195774939361     0.005608000000000001     -37.9151914164857
0.0023989416561278672     0.006172018048244977     0.005608000000000001     -43.76827888240689
0.002396221827460982      0.006142351834001695     0.005608000000000002     -43.61694500972929
0.0023935019987940975     0.006112685619758413     0.005608000000000002     -43.46561113705168
0.0023907821701272124     0.006083019405515129     0.005608000000000001     -43.83283202357113
0.0024235262849291793     0.006163263649289579     0.005608000000000002     -46.89115587697984
0.0024208064562622946     0.006133597435046297     0.005608000000000002     -46.7398220043022
0.0024180866275954095     0.006103931220803015     0.005608000000000002     -46.67525132379412
0.0024481109137304913     0.006154509250334181     0.005608000000000002     -50.01403287155276
0.002445391085063606      0.006124843036090898     0.005608000000000002     -49.517670624017114
0.0024726955425318034     0.006145754851378783     0.005608000000000002     -52.360089924240114
0.002319162382989423      0.006213798391213762     0.005608000000000001     -29.671238269474944
0.0023164425543225385     0.006184132176970479     0.005608000000000002     -29.264309077434696
0.002285832538786719      0.006208403722028468     0.005608000000000002     -21.15243285801303
0.002283112710119834      0.006178737507785185     0.005608000000000001     -21.27545975568997
0.0022525026945840144     0.006203009052843172     0.005608000000000001     -12.633627446551131
0.0022497828659171293     0.00617334283859989      0.005608000000000002     -13.28661043394522
0.00221917285038131       0.006197614383657877     0.005608000000000001     -4.1148220350892135
0.002216453021714425      0.006167948169414595     0.005608000000000001     -5.297761112200533
0.0021858430061786056     0.006192219714472582     0.005608000000000001     4.403983376372754
0.0021831231775117205     0.0061625535002293       0.005608000000000001     3.083131607427784
0.002152513161975901      0.006186825045287288     0.005608000000000001     15.386121618872943
0.0023137227256556534     0.006154465962727196     0.005608                 -29.512919727911846
0.002280392881452949      0.006149071293541902     0.005608000000000001     -21.524070406167105
0.002247063037250245      0.006143676624356607     0.005608000000000002     -13.535221084422384
0.00221373319304754       0.006138281955171312     0.005608                 -5.237743348060919
0.002311002896988769      0.006124799748483914     0.005608000000000002     -29.761530378389004
0.0022776730527860646     0.006119405079298619     0.005608000000000002     -21.772681056644267
0.00224434320858336       0.006114010410113325     0.005608000000000001     -13.558618303549576
0.002308283068321884      0.006095133534240632     0.005608000000000001     -30.010141028866137
0.002274953224119179      0.0060897388650553354    0.005608                 -21.879493259038256
0.002305563239654999      0.006065467319997349     0.005608000000000001     -30.20036821452692
0.0023634777126590157     0.006023218701338357     0.005608000000000001     -40.5570921697762
0.0023907821701272124     0.006044130516626241     0.005608000000000002     -43.45143717288292
0.0023907821701272124     0.006005241627737351     0.005608000000000002     -42.25397628786146
0.0024180866275954095     0.006026153443025236     0.005608000000000002     -44.96211529619307
0.0024180866275954095     0.005987264554136347     0.005608000000000002     -43.95086040594667
0.002445391085063606      0.006008176369424231     0.005608000000000002     -46.47279341950322
0.002445391085063606      0.005969287480535343     0.005608000000000002     -45.64774452403189
0.0024726955425318034     0.005990199295823227     0.005608000000000002     -47.98347154281335
0.002472695542531803      0.005951310406934337     0.005608000000000002     -47.34462864211714
0.0025                    0.005972222222222222     0.005608000000000002     -49.49414966612349
0.0025                    0.005933333333333333     0.005608000000000002     -48.47071454163137
0.0024180866275954095     0.006065042331914124     0.005608000000000002     -45.86206490607834
0.002445391085063606      0.00604706525831312      0.005608000000000002     -47.3727430293885
0.0024726955425318034     0.0060290881847121156    0.005608000000000002     -48.88342115269864
0.0025                    0.006011111111111111     0.005608000000000002     -50.39409927600878
0.002445391085063606      0.0060859541472020095    0.005608000000000002     -48.27269263927379
0.0024726955425318034     0.006067977073601005     0.005608000000000002     -49.78337076258393
0.0025000000000000005     0.00605                  0.005608000000000002     -51.29404888589406
0.002472695542531804      0.006106865962489895     0.005608000000000002     -50.6833203724692
0.0025000000000000005     0.0060888888888888885    0.005608000000000002     -52.193998495779354
0.0025000000000000005     0.006127777777777779     0.005608000000000002     -53.09394810566465
0.002277777777777778      0.0064                   0.005608                 -17.636162153226643
0.002290230186013503      0.0063698655100665105    0.005608000000000001     -21.571158022083004
0.002314814814814815      0.006400000000000001     0.005608000000000001     -27.18503456468602
0.00232726722305054       0.0063698655100665105    0.005608000000000001     -29.930317701111242
0.002302682594249228      0.00633973102013302      0.005608                 -24.934514083162096
0.0023397196312862647     0.00633973102013302      0.005608                 -32.67560083753647
0.0023151350024849526     0.006309596530199529     0.005608                 -28.2978701442412
0.00235217203952199       0.006309596530199529     0.005608000000000001     -35.42088397396171
0.002327587410720678      0.006279462040266038     0.005608                 -31.6612262053203
0.002364624447757715      0.006279462040266038     0.005608000000000001     -38.16616711038695
0.0023400398189564026     0.006249327550332548     0.005608                 -35.024582266399406
0.002351851851851852      0.006400000000000001     0.005608                 -33.44143090613799
0.0023643042600875767     0.00636986551006651      0.005608                 -36.186714042563196
0.002376756668323302      0.006339731020133019     0.005608                 -38.93199717898844
0.002389209076559027      0.006309596530199529     0.005608000000000001     -41.67728031541367
0.002388888888888889      0.0064                   0.005608                 -39.697827247589956
0.002401341297124614      0.0063698655100665105    0.005608                 -42.44311038401519
0.0024137937053603387     0.00633973102013302      0.005608000000000001     -45.188393520440414
0.002425925925925926      0.006400000000000001     0.005608                 -45.954223589041916
0.002438378334161651      0.0063698655100665105    0.005608000000000001     -48.69950672546715
0.002462962962962963      0.0064                   0.005608                 -52.2106199304939
0.0023067099747536984     0.006243932881147252     0.005608000000000002     -26.345349126259492
0.0022942575665179732     0.006274067371080743     0.005608000000000001     -22.363920140526485
0.0022818051582822485     0.006304201861014234     0.005608000000000001     -18.382491154793556
0.0022693527500465232     0.006334336350947724     0.005608000000000001     -14.401062169060602
0.0022569003418107985     0.006364470840881215     0.005608000000000001     -10.690150828710394
0.002273380130550994      0.006238538211961957     0.005608                 -17.296587625080377
0.0022609277223152686     0.0062686727018954475    0.005608                 -13.315158639347338
0.002248475314079544      0.00629880719182894      0.005608                 -9.33372965361443
0.0022360229058438186     0.006328941681762429     0.005608                 -5.390377539197857
0.002240050286348289      0.006233143542776663     0.005608000000000001     -8.247826123901202
0.002227597878112565      0.006263278032710154     0.005608000000000001     -4.266397138168232
0.0022151454698768397     0.006293412522643644     0.005608                 -0.09060424968529218
0.002206720442145585      0.0062277488735913685    0.005608000000000001     0.8009353772778885
0.00219426803390986       0.006257883363524858     0.005608                 5.209169039827265
0.0021733905979428804     0.006222354204406073     0.005608000000000001     10.50894232933981
0.0020555555555555557     0.0064                   0.005608000000000002     56.05125945535328
0.0020717151566256135     0.006364470840881215     0.005608000000000002     48.140491177783346
0.002092592592592593      0.006400000000000001     0.005608000000000002     40.99653195414312
0.0021087521936626503     0.006364470840881216     0.005608000000000002     35.030863119359054
0.002087874757695671      0.006328941681762431     0.005608000000000002     41.94138874553937
0.0021249117947327078     0.006328941681762429     0.005608000000000002     29.065194284574872
0.0021040343587657283     0.006293412522643644     0.005608000000000002     35.74228631329535
0.002141071395802765      0.006293412522643645     0.005608000000000002     23.09952544979079
0.0021201939598357858     0.006257883363524858     0.005608000000000001     29.543183881051398
0.002157230996872823      0.006257883363524858     0.005608000000000002     17.133856615006657
0.0021363535609058436     0.006222354204406073     0.005608000000000001     23.344081448807366
0.0021296296296296298     0.006400000000000001     0.005608000000000002     29.498649055780113
0.002145789230699687      0.006364470840881215     0.005608000000000001     23.532980220995945
0.0021619488317697446     0.00632894168176243      0.005608000000000001     17.567311386211856
0.0021781084328398024     0.0062934125226436445    0.005608000000000001     11.60164255142774
0.0021666666666666666     0.0064                   0.005608000000000001     18.000766157417047
0.0021828262677367244     0.006364470840881216     0.005608000000000001     12.035097322632925
0.0021989858688067822     0.00632894168176243      0.005608000000000001     6.069428487848812
0.002203703703703704      0.006400000000000001     0.005608000000000001     6.502883259053984
0.0022198633047737612     0.006364470840881215     0.005608000000000001     0.5372144242699013
0.002240740740740741      0.0064                   0.005608000000000001     -4.994999639309059
0.0021133572042124904     0.006189383293295769     0.005608000000000001     27.365893260905644
0.002097197603142433      0.0062249124524145555    0.005608000000000002     33.26858379624565
0.002081038002072375      0.00626044161153334      0.005608000000000002     39.701119825949526
0.0020648784010023177     0.006295970770652126     0.005608000000000002     46.13365585565339
0.00204871879993226       0.006331499929770911     0.005608000000000002     52.56619188535724
0.0020325591988622025     0.0063670290888896966    0.005608000000000002     60.26866316622886
0.00207420124644908       0.006191941541304251     0.005608000000000002     36.33418932392489
0.002058041645379022      0.006227470700423036     0.005608000000000001     42.515075373462125
0.0020418820443089646     0.006262999859541821     0.005608000000000002     48.947611403166
0.002025722443238907      0.006298529018660607     0.005608000000000002     55.38014743286983
0.0020095628421688493     0.006334058177779392     0.005608000000000002     62.70764457568091
0.0020350452886856688     0.0061944997893127315    0.005608000000000001     45.30248538694417
0.0020188856876156114     0.006230028948431518     0.005608000000000002     51.761566950678606
0.002002726086545554      0.006265558107550303     0.005608000000000002     58.19410298038245
0.001986566485475496      0.006301087266669088     0.005608000000000002     65.14662598513297
0.001995889330922258      0.006197058037321213     0.005608000000000001     54.27078144996341
0.0019797297298522008     0.006232587196439998     0.005608000000000001     61.008058527895074
0.001963570128782143      0.006268116355558784     0.005608000000000001     67.58560739458505
0.001956733373158847      0.006199616285329694     0.005608000000000001     63.23907751298269
0.0019405737720887897     0.006235145444448479     0.005608000000000001     70.0245888040371
0.0019175774153954368     0.006202174533338175     0.005608000000000001     72.31906033423701
0.0018333333333333335     0.006400000000000001     0.005608000000000002     87.42110714748566
0.0018473740136770176     0.006367029088889697     0.005608000000000002     84.4317814733636
0.0018703703703703708     0.006400000000000001     0.005608000000000002     83.22169118226162
0.0018844110507140544     0.006367029088889697     0.005608000000000002     80.53627844640181
0.0018614146940207012     0.006334058177779393     0.005608000000000002     82.13036465379682
0.0018984517310577384     0.006334058177779392     0.005608000000000002     77.85086571054202
0.0018754553743643852     0.006301087266669088     0.005608000000000002     79.82894783423004
0.001912492411401422      0.006301087266669088     0.005608000000000002     75.16545297468222
0.0018894960547080689     0.0062681163555587845    0.005608000000000001     77.52753101466325
0.001926533091745106      0.0062681163555587845    0.005608000000000002     72.48004023882243
0.0019035367350517527     0.006235145444448479     0.005608000000000001     75.22611419509646
0.0019074074074074076     0.006400000000000001     0.005608000000000002     78.47227117501032
0.0019214480877510914     0.0063670290888896966    0.005608000000000002     75.7868584391505
0.0019354887680947752     0.006334058177779393     0.005608000000000002     73.10144570329072
0.0019495294484384593     0.006301087266669088     0.005608000000000002     70.41603296743094
0.0019444444444444446     0.006400000000000001     0.005608000000000002     73.72285116775899
0.0019584851247881284     0.0063670290888896966    0.005608000000000002     71.0374384318992
0.0019725258051318125     0.006334058177779392     0.005608000000000002     68.35202569603943
0.0019814814814814816     0.006400000000000001     0.005608000000000002     68.9734311605077
0.0019955221618251657     0.0063670290888896966    0.005608000000000002     66.28801842464793
0.002018518518518519      0.006400000000000001     0.005608000000000002     64.22401115325641
0.0018841224438208076     0.006202050092930009     0.005608000000000001     72.59509209927812
0.0018700817634771238     0.0062350210040403135    0.005608000000000002     74.53442801141296
0.0018560410831334397     0.006267991915150617     0.005608000000000002     76.45184891468674
0.001842000402789756      0.006300962826260923     0.005608000000000002     78.36926981796053
0.001827959722446072      0.0063339337373712265    0.005608000000000002     80.28669072123427
0.0018139190421023884     0.006366904648481531     0.005608000000000002     83.36893269902086
0.0018506674722461786     0.006201925652521843     0.005608000000000002     71.0898111522142
0.0018366267919024946     0.006234896563632146     0.005608000000000001     73.16067514284694
0.001822586111558811      0.006267867474742452     0.005608000000000002     75.07809604612072
0.001808545431215127      0.006300838385852756     0.005608000000000002     76.99551694939447
0.0017945047508714429     0.006333809296963059     0.005608000000000002     79.59176027156977
0.0018172125006715497     0.006201801212113675     0.005608000000000001     69.58453020515033
0.0018031718203278656     0.006234772123223981     0.005608000000000002     71.78692227428094
0.001789131139984182      0.006267743034334285     0.005608000000000002     73.70434317755469
0.001775090459640498      0.006300713945444588     0.005608000000000002     75.81458784411865
0.0017837575290969205     0.00620167677170551      0.005608000000000001     68.07924925808643
0.0017697168487532367     0.006234647682815814     0.005608000000000001     70.41316940571495
0.0017556761684095526     0.0062676185939261175    0.005608000000000001     72.03741541666751
0.0017503025575222914     0.006201552331297343     0.005608000000000001     66.57396831102254
0.0017362618771786078     0.0062345232424076465    0.005608000000000001     68.26024298921641
0.0017168475859476624     0.0062014278908891765    0.005608000000000001     63.27502209902061
0.0019028222733859096     0.0061709441976475245    0.005608000000000001     67.86081436716498
0.0018693673018112806     0.006170819757239359     0.005608000000000002     68.31555639863785
0.0018359123302366515     0.006170695316831192     0.005608000000000001     66.67874737307608
0.0018024573586620225     0.006170570876423026     0.005608000000000002     65.04193834751436
0.0017690023870873936     0.006170446436014859     0.005608000000000001     63.40512932195257
0.0017355474155127644     0.006170321995606692     0.005608000000000001     60.919939736714454
0.0018880671313763826     0.0061397138619568754    0.005608000000000002     63.89651868315057
0.0018546121598017535     0.006139589421548708     0.005608                 64.05793570685867
0.0018211571882271243     0.006139464981140542     0.005608000000000001     62.421126681296926
0.0017877022166524954     0.006139340540732376     0.005608000000000002     60.78431765573522
0.0017542472450778662     0.006139216100324208     0.005608                 58.7277097375804
0.0018733119893668553     0.006108483526266225     0.005608000000000001     59.93222299913617
0.0018398570177922263     0.0061083590858580575    0.005608000000000002     59.80031501507953
0.0018064020462175974     0.006108234645449892     0.005608000000000002     58.16350598951779
0.0017729470746429682     0.006108110205041725     0.005608000000000001     56.53547973844633
0.0018585568473573283     0.006077253190575574     0.005608000000000001     55.967927315121784
0.0018251018757826994     0.006077128750167408     0.005608000000000001     55.54269432330041
0.00179164690420807       0.006077004309759241     0.005608                 54.34324973931227
0.001843801705347801      0.006046022854884924     0.005608000000000001     52.00363163110735
0.001810346733773172      0.006045898414476758     0.005608000000000001     52.15101974017823
0.001829046563338274      0.006014792519194273     0.005608000000000001     48.04187902513624
0.001995847393184823      0.006034543278489256     0.005608000000000001     37.24736265986824
0.002021958354650003      0.0060599235729555945    0.005608000000000001     34.334594732777035
0.001982802396886592      0.006062481820964076     0.005608000000000001     43.66504463608052
0.0020089133583517716     0.006087862115430415     0.005608000000000002     40.15643628487604
0.0020480693161151827     0.006085303867421933     0.005608000000000002     31.036460864146385
0.0020350243198169514     0.0061132424098967525    0.005608000000000001     37.09126190247437
0.002074180277580362      0.006110684161888272     0.005608000000000001     27.738326995515756
0.0020611352812821312     0.006138622704363092     0.005608000000000002     34.02608752007273
0.002100291239045542      0.0061360644563546105    0.005608000000000001     24.440193126885156
0.0020872462427473106     0.006164002998829431     0.005608000000000001     30.9609131376711
0.002126402200510721      0.006161444750820949     0.005608000000000001     21.14205925825454
0.001969757400588361      0.006090420363438896     0.005608000000000002     49.010683257440405
0.0019958683620535404     0.006115800657905234     0.005608                 45.78136245129645
0.00202197932351872       0.0061411809523715735    0.005608000000000001     42.716188068894795
0.0020480902849839        0.006166561246837912     0.005608000000000002     39.651013686493144
0.00195671240429013       0.0061183589059137155    0.005608000000000001     54.35632187880027
0.0019828233657553096     0.006143739200380054     0.005608000000000002     51.40628861771688
0.0020089343272204894     0.006169119494846393     0.005608000000000002     48.3411142353152
0.001943667407991899      0.006146297448388536     0.005608000000000001     59.701960500160155
0.001969778369457079      0.006171677742854874     0.005608000000000001     57.03121478413729
0.0019306224116936678     0.006174235990863355     0.005608000000000001     65.04759912152002
0.001968047254877065      0.006031251485273425     0.005608000000000001     39.8305881821294
0.001955002258578834      0.006059190027748245     0.005608000000000002     45.503859004933055
0.0019419572622806026     0.006087128570223066     0.005608000000000001     50.57021008123242
0.0019289122659823718     0.006115067112697886     0.005608000000000002     55.636561157531716
0.0019158672696841408     0.006143005655172706     0.005608000000000001     60.702912233831015
0.001940247116569307      0.0060279596920575955    0.005608000000000002     41.41766198426119
0.0019272021202710757     0.006055898234532415     0.005608                 46.89923940498276
0.0019141571239728447     0.006083836777007235     0.005608000000000001     51.96559048128209
0.0019011121276746137     0.006111775319482055     0.005608000000000002     57.031941557581376
0.0019124469782615485     0.006024667898841764     0.005608000000000001     43.004735786392956
0.0018994019819633175     0.006052606441316584     0.005608000000000002     48.29461980503242
0.0018863569856650865     0.0060805449837914045    0.005608000000000002     53.36097088133175
0.0018846468399537904     0.006021376105625934     0.005608000000000001     44.59180958852474
0.0018716018436555596     0.006049314648100755     0.005608000000000001     49.690000205082086
0.0018568467016460322     0.006018084312410104     0.005608000000000001     46.178883390656544
0.0023207609055080096     0.00582793289413276      0.005608000000000001     -31.024433923112195
0.0023506340879233412     0.005806610745110634     0.005608000000000001     -30.992067186780645
0.0023506340879233412     0.005845499633999523     0.005608000000000001     -33.921668162153836
0.0023805072703386733     0.005824177484977397     0.005608000000000002     -33.17543413692465
0.002380507270338673      0.005785288596088507     0.005608000000000001     -29.223517486549913
0.0024103804527540046     0.005802855335955269     0.005608000000000001     -31.706004467562366
0.0024103804527540046     0.00576396644706638      0.005608                 -27.454967786319152
0.0024402536351693367     0.005781533186933143     0.005608000000000001     -30.23657479820008
0.0024402536351693363     0.005742644298044254     0.005608                 -25.686418086088413
0.0024701268175846684     0.005760211037911016     0.005608000000000001     -28.767145128837758
0.002470126817584668      0.005721322149022127     0.005608000000000001     -23.917868385857652
0.0025                    0.00573888888888889      0.005608000000000001     -27.297715459475484
0.0025                    0.0057                   0.005608                 -21.602151131952365
0.002380507270338673      0.005863066373866285     0.005608000000000002     -36.81912888658864
0.0024103804527540046     0.0058417442248441575    0.005608000000000001     -35.71228499656514
0.0024402536351693363     0.005820422075822031     0.005608000000000001     -34.24285532720286
0.0024701268175846684     0.0057990999267999045    0.005608000000000001     -32.773425657840555
0.0024999999999999996     0.0057777777777777775    0.005608                 -31.303995988478263
0.0024103804527540046     0.005880633113733047     0.005608000000000002     -39.71658961102348
0.0024402536351693363     0.00585931096471092      0.005608000000000002     -38.24913585620564
0.0024701268175846684     0.005837988815688793     0.005608000000000002     -36.77970618684333
0.0025                    0.005816666666666666     0.005608000000000001     -35.31027651748104
0.0024402536351693363     0.005898199853599809     0.005608000000000002     -42.6140503354583
0.0024701268175846684     0.005876877704577682     0.005608000000000002     -40.78598671584611
0.0024999999999999996     0.005855555555555555     0.005608000000000001     -39.31655704648382
0.002470126817584668      0.00591576659346657      0.005608000000000002     -45.51151105989312
0.0025                    0.005894444444444444     0.005608000000000002     -43.3228375754866
0.0024680553445218063     0.005682758612112168     0.005608000000000001     -18.369441241260876
0.002438182162106475      0.005704080761134295     0.005608000000000001     -20.652147976110676
0.002408308979691143      0.00572540291015642      0.005608                 -22.719817707209888
0.0023784357972758113     0.005746725059178547     0.005608000000000001     -24.7874874383091
0.0023485626148604796     0.005768047208200674     0.005608000000000001     -26.85515716940828
0.0023186894324451475     0.005789369357222801     0.005608000000000001     -26.977111076732623
0.002436110689043613      0.005665517224224335     0.005608                 -15.9813732498295
0.0024062375066282804     0.0056868393732464615    0.005608                 -18.229423780341037
0.0023763643242129488     0.005708161522268588     0.005608                 -20.297093511440238
0.002346491141797617      0.005729483671290715     0.005608000000000001     -22.36476324253944
0.0023166179593822854     0.005750805820312841     0.005608                 -23.423828453828925
0.002404166033565419      0.005648275836336503     0.005608                 -13.593305258398154
0.002374292851150087      0.00566959798535863      0.005608                 -15.80669958457138
0.0023444196687347554     0.005690920134380756     0.005608000000000001     -17.87436931567057
0.0023145464863194238     0.005712242283402882     0.005608000000000001     -19.870545830925252
0.002372221378087225      0.005631034448448671     0.005608                 -11.205237266966785
0.0023423481956718934     0.0056523565974707975    0.005608000000000001     -13.383975388801744