% Model:              stripline_filter_simple_decomp_new_mesh.mph
% Version:            COMSOL 6.1.0.252
% Date:               May 18 2023, 17:44
% Dimension:          3
% Nodes:              2539
% Expressions:        1
% Description:        Surface
% X                       Y                        Z                        real(emw.Ez)
0.0025000000000000005     0.0061666666666666675    0.005608000000000002     -77.1699730930717
0.0025000000000000005     0.006205555555555556     0.005608000000000002     9.109373207684639E-15
0.0024754153711986884     0.0061754210656220655    0.005608000000000002     -107.86620233424202
0.0024754153711986884     0.006214309954510956     0.005608000000000002     -5.123836081826333
0.0025000000000000005     0.006244444444444446     0.005608000000000002     1.464105433378588E-14
0.0024754153711986884     0.006253198843399843     0.005608000000000002     25.694883098439963
0.0025000000000000005     0.0062833333333333335    0.005608000000000002     1.5053508481542427E-14
0.0024754153711986884     0.006292087732288733     0.005608000000000002     56.513602278706315
0.0025                    0.006322222222222223     0.005608000000000001     1.034673565095415E-14
0.002475415371198688      0.006330976621177622     0.005608000000000002     87.33232145897259
0.0025                    0.006361111111111112     0.005608000000000001     5.207358420211758E-16
0.002475415371198688      0.0063698655100665105    0.005608000000000001     124.7245293299136
0.0025                    0.0064                   0.005608000000000001     -7.212245472628323E-15
0.0024508307423973764     0.006184175464577464     0.005608000000000002     -95.79676819078387
0.0024508307423973764     0.006223064353466353     0.005608000000000002     3.417421469868838
0.0024508307423973764     0.006261953242355242     0.005608000000000002     65.05485983040154
0.0024508307423973764     0.00630084213124413      0.005608000000000002     126.6922981909342
0.0024508307423973755     0.006339731020133019     0.005608                 202.03617057522342
0.002426246113596064      0.006192929863532862     0.005608000000000002     -72.94586933212594
0.002426246113596064      0.006231818752421752     0.005608000000000002     25.62377265508576
0.002426246113596064      0.00627070764131064      0.005608000000000002     118.07993019588483
0.002426246113596064      0.006309596530199529     0.005608000000000001     231.93492373592957
0.002401661484794752      0.00620168426248826      0.005608000000000001     -39.313505758268064
0.002401661484794752      0.006240573151377149     0.005608000000000001     61.495217473824226
0.0024016614847947515     0.0062794620402660374    0.005608                 214.42078881203196
0.00237707685599344       0.006210438661443659     0.005608000000000001     5.10032253078964
0.00237707685599344       0.006249327550332548     0.005608000000000001     149.49376580353072
0.002352492227192128      0.006219193060399057     0.005608000000000001     96.38083072085942
0.0023497723985252427     0.006189526846155775     0.005608000000000001     124.16721389120977
0.002374357027326555      0.006180772447200376     0.005608000000000002     73.19294375479895
0.002347052569858358      0.006159860631912492     0.005608000000000002     118.57577536381632
0.00237163719865967       0.006151106232957093     0.005608000000000001     86.39085371704554
0.002344332741191473      0.0061301944176692085    0.005608000000000001     105.42493287391254
0.0023689173699927854     0.006121440018713811     0.005608000000000002     92.85621492356654
0.0023416129125245883     0.006100528203425926     0.005608000000000001     84.71468642149789
0.0023661975413259003     0.0060917738044705275    0.005608000000000001     92.58902737436179
0.0023388930838577036     0.006070861989182644     0.005608000000000001     56.44503600657279
0.0023634777126590157     0.006062107590227245     0.005608000000000001     142.59721059664056
0.0023361732551908185     0.006041195774939361     0.005608000000000001     48.3145888808049
0.0023989416561278672     0.006172018048244977     0.005608000000000001     15.038459276406627
0.002396221827460982      0.006142351834001695     0.005608000000000002     40.19172206638305
0.0023935019987940975     0.006112685619758413     0.005608000000000002     58.61243610063371
0.0023907821701272124     0.006083019405515129     0.005608000000000001     134.57358359052122
0.0024235262849291793     0.006163263649289579     0.005608000000000002     -35.218189405107154
0.0024208064562622946     0.006133597435046297     0.005608000000000002     1.8904262125984133
0.0024180866275954095     0.006103931220803015     0.005608000000000002     104.72655306383699
0.0024481109137304913     0.006154509250334181     0.005608000000000002     -77.5770022897429
0.002445391085063606      0.006124843036090898     0.005608000000000002     53.05611901658733
0.0024726955425318034     0.006145754851378783     0.005608000000000002     -20.437718551227583
0.002319162382989423      0.006213798391213762     0.005608000000000001     202.2240340225389
0.0023164425543225385     0.006184132176970479     0.005608000000000002     190.81237803747155
0.002285832538786719      0.006208403722028468     0.005608000000000002     262.49456655305846
0.002283112710119834      0.006178737507785185     0.005608000000000001     265.22295776879474
0.0022525026945840144     0.006203009052843172     0.005608000000000001     318.97474061336845
0.0022497828659171293     0.00617334283859989      0.005608000000000002     332.3209029463199
0.00221917285038131       0.006197614383657877     0.005608000000000001     371.664556203469
0.002216453021714425      0.006167948169414595     0.005608000000000001     392.1062135700475
0.0021858430061786056     0.006192219714472582     0.005608000000000001     420.5640133233601
0.0021831231775117205     0.0061625535002293       0.005608000000000001     413.4656802335835
0.002152513161975901      0.006186825045287288     0.005608000000000001     460.4458879064674
0.0023137227256556534     0.006154465962727196     0.005608                 164.49399216490363
0.002280392881452949      0.006149071293541902     0.005608000000000001     225.01162021296273
0.002247063037250245      0.006143676624356607     0.005608000000000002     278.21661370722427
0.00221373319304754       0.006138281955171312     0.005608                 303.6572896980622
0.002311002896988769      0.006124799748483914     0.005608000000000002     129.7893471230406
0.0022776730527860646     0.006119405079298619     0.005608000000000002     176.41402348783546
0.00224434320858336       0.006114010410113325     0.005608000000000001     204.61166818017392
0.002308283068321884      0.006095133534240632     0.005608000000000001     86.69844291188164
0.002274953224119179      0.0060897388650553354    0.005608                 116.32881567991808
0.002305563239654999      0.006065467319997349     0.005608000000000001     38.808732197295114
0.0023634777126590157     0.006023218701338357     0.005608000000000001     92.34103603518591
0.0023907821701272124     0.006044130516626241     0.005608000000000002     153.00371506178482
0.0023907821701272124     0.006005241627737351     0.005608000000000002     56.84647293319811
0.0024180866275954095     0.006026153443025236     0.005608000000000002     119.83326340074956
0.0024180866275954095     0.005987264554136347     0.005608000000000002     32.45963144332209
0.002445391085063606      0.006008176369424231     0.005608000000000002     100.0937751407438
0.002445391085063606      0.005969287480535343     0.005608000000000002     19.180511565557573
0.0024726955425318034     0.005990199295823227     0.005608000000000002     93.78525028176733
0.002472695542531803      0.005951310406934337     0.005608000000000002     17.00911329990474
0.0025                    0.005972222222222222     0.005608000000000002     100.90768882382017
0.0025                    0.005933333333333333     0.005608000000000002     17.29695776424236
0.0024180866275954095     0.006065042331914124     0.005608000000000002     150.31077377381155
0.002445391085063606      0.00604706525831312      0.005608000000000002     115.20594514676857
0.0024726955425318034     0.0060290881847121156    0.005608000000000002     93.53207992075498
0.0025                    0.006011111111111111     0.005608000000000002     85.28917809577064
0.002445391085063606      0.0060859541472020095    0.005608000000000002     126.71644405901466
0.0024726955425318034     0.006067977073601005     0.005608000000000002     89.67723846596381
0.0025000000000000005     0.00605                  0.005608000000000002     66.06899627394228
0.002472695542531804      0.006106865962489895     0.005608000000000002     82.22072591739406
0.0025000000000000005     0.0060888888888888885    0.005608000000000002     43.24714335833548
0.0025000000000000005     0.006127777777777779     0.005608000000000002     16.823619348949748
0.002277777777777778      0.0064                   0.005608                 -102.11082309573908
0.002290230186013503      0.0063698655100665105    0.005608000000000001     -72.84350590358201
0.002314814814814815      0.006400000000000001     0.005608000000000001     0
0.00232726722305054       0.0063698655100665105    0.005608000000000001     2.0824646023380744
0.002302682594249228      0.00633973102013302      0.005608                 -60.66336560098048
0.0023397196312862647     0.00633973102013302      0.005608                 21.91927447160475
0.0023151350024849526     0.006309596530199529     0.005608                 -34.879715671229356
0.00235217203952199       0.006309596530199529     0.005608000000000001     59.51042960780025
0.002327587410720678      0.006279462040266038     0.005608                 4.507443885671316
0.002364624447757715      0.006279462040266038     0.005608000000000001     114.85593001092428
0.0023400398189564026     0.006249327550332548     0.005608                 57.498113069721775
0.002351851851851852      0.006400000000000001     0.005608                 0
0.0023643042600875767     0.00636986551006651      0.005608                 34.38635295690068
0.002376756668323302      0.006339731020133019     0.005608                 86.52705118072987
0.002389209076559027      0.006309596530199529     0.005608000000000001     156.4220946714879
0.002388888888888889      0.0064                   0.005608                 0
0.002401341297124614      0.0063698655100665105    0.005608                 66.69024131146315
0.0024137937053603387     0.00633973102013302      0.005608000000000001     151.13482788985493
0.002425925925925926      0.006400000000000001     0.005608                 0
0.002438378334161651      0.0063698655100665105    0.005608000000000001     98.99412966602569
0.002462962962962963      0.0064                   0.005608                 0
0.0023067099747536984     0.006243932881147252     0.005608000000000002     139.14723834922862
0.0022942575665179732     0.006274067371080743     0.005608000000000001     92.04358738149396
0.0022818051582822485     0.006304201861014234     0.005608000000000001     54.39261040112959
0.0022693527500465232     0.006334336350947724     0.005608000000000001     26.19430740813612
0.0022569003418107985     0.006364470840881215     0.005608000000000001     7.351343173034955
0.002273380130550994      0.006238538211961957     0.005608                 189.4665020805565
0.0022609277223152686     0.0062686727018954475    0.005608                 160.44458119769754
0.002248475314079544      0.00629880719182894      0.005608                 140.87533430220896
0.0022360229058438186     0.006328941681762429     0.005608                 141.99208431444504
0.002240050286348289      0.006233143542776663     0.005608000000000001     239.51768342526313
0.002227597878112565      0.006263278032710154     0.005608000000000001     228.57749262727992
0.0022151454698768397     0.006293412522643644     0.005608                 250.75598878061933
0.002206720442145585      0.0062277488735913685    0.005608000000000001     289.30078238334806
0.00219426803390986       0.006257883363524858     0.005608                 333.6430565715592
0.0021733905979428804     0.006222354204406073     0.005608000000000001     390.6532876872643
0.0020555555555555557     0.0064                   0.005608000000000002     18.248892646211132
0.0020717151566256135     0.006364470840881215     0.005608000000000002     142.07716515744738
0.002092592592592593      0.006400000000000001     0.005608000000000002     -56.95399939653362
0.0021087521936626503     0.006364470840881216     0.005608000000000002     62.67362928578543
0.002087874757695671      0.006328941681762431     0.005608000000000002     239.93912631724567
0.0021249117947327078     0.006328941681762429     0.005608000000000002     172.43192120857054
0.0021040343587657283     0.006293412522643644     0.005608000000000002     320.95922244870815
0.002141071395802765      0.006293412522643645     0.005608000000000002     272.3208763718203
0.0021201939598357858     0.006257883363524858     0.005608000000000001     385.13745355183687
0.002157230996872823      0.006257883363524858     0.005608000000000002     362.34049477553606
0.0021363535609058436     0.006222354204406073     0.005608000000000001     432.47381962663064
0.0021296296296296298     0.006400000000000001     0.005608000000000002     -69.30554539359082
0.002145789230699687      0.006364470840881215     0.005608000000000001     55.53579396232875
0.0021619488317697446     0.00632894168176243      0.005608000000000001     170.50779655871273
0.0021781084328398024     0.0062934125226436445    0.005608000000000001     275.61046239556254
0.0021666666666666666     0.0064                   0.005608000000000001     -86.13513806538185
0.0021828262677367244     0.006364470840881216     0.005608000000000001     43.91991196413744
0.0021989858688067822     0.00632894168176243      0.005608000000000001     164.10562523412125
0.002203703703703704      0.006400000000000001     0.005608000000000001     -107.4427774119049
0.0022198633047737612     0.006364470840881215     0.005608000000000001     27.82598329121371
0.002240740740740741      0.0064                   0.005608000000000001     -133.22846343316087
0.0021133572042124904     0.006189383293295769     0.005608000000000001     529.2680775420697
0.002097197603142433      0.0062249124524145555    0.005608000000000002     523.604250888836
0.002081038002072375      0.00626044161153334      0.005608000000000002     494.35417280843393
0.0020648784010023177     0.006295970770652126     0.005608000000000002     441.28970143089634
0.00204871879993226       0.006331499929770911     0.005608000000000002     364.4108367562251
0.0020325591988622025     0.0063670290888896966    0.005608000000000002     221.685439347153
0.00207420124644908       0.006191941541304251     0.005608000000000002     638.3538356696329
0.002058041645379022      0.006227470700423036     0.005608000000000001     614.2037220548893
0.0020418820443089646     0.006262999859541821     0.005608000000000002     575.4397270730909
0.002025722443238907      0.006298529018660607     0.005608000000000002     512.8613387941573
0.0020095628421688493     0.006334058177779392     0.005608000000000002     395.85609287750253
0.0020350452886856688     0.0061944997893127315    0.005608000000000001     754.7084951920692
0.0020188856876156114     0.006230028948431518     0.005608000000000002     712.4503303773772
0.002002726086545554      0.006265558107550303     0.005608000000000002     664.1724184941831
0.001986566485475496      0.006301087266669088     0.005608000000000002     574.4255495974678
0.001995889330922258      0.006197058037321213     0.005608000000000001     878.3320561093793
0.0019797297298522008     0.006232587196439998     0.005608000000000001     818.3440758563006
0.001963570128782143      0.006268116355558784     0.005608000000000001     757.3938095070506
0.001956733373158847      0.006199616285329694     0.005608000000000001     1009.2245184215622
0.0019405737720887897     0.006235145444448479     0.005608000000000001     944.7608726062504
0.0019175774153954368     0.006202174533338175     0.005608000000000001     1228.2950351169334
0.0018333333333333335     0.006400000000000001     0.005608000000000002     -26.441410255411498
0.0018473740136770176     0.006367029088889697     0.005608000000000002     271.09617353237036
0.0018703703703703708     0.006400000000000001     0.005608000000000002     -9.622213089307915E-13
0.0018844110507140544     0.006367029088889697     0.005608000000000002     262.05925377539177
0.0018614146940207012     0.006334058177779393     0.005608000000000002     541.372399642985
0.0018984517310577384     0.006334058177779392     0.005608000000000002     488.8525593351727
0.0018754553743643852     0.006301087266669088     0.005608000000000002     771.1665629487256
0.001912492411401422      0.006301087266669088     0.005608000000000002     680.3799166793408
0.0018894960547080689     0.0062681163555587845    0.005608000000000001     960.4786634495927
0.001926533091745106      0.0062681163555587845    0.005608000000000002     836.6413258078958
0.0019035367350517527     0.006235145444448479     0.005608000000000001     1109.3087011455855
0.0019074074074074076     0.006400000000000001     0.005608000000000002     -8.84680017882769E-13
0.0019214480877510914     0.0063670290888896966    0.005608000000000002     241.45776530901563
0.0019354887680947752     0.006334058177779393     0.005608000000000002     447.64958240241987
0.0019495294484384593     0.006301087266669088     0.005608000000000002     618.5754512802102
0.0019444444444444446     0.006400000000000001     0.005608000000000002     -8.080201936628491E-13
0.0019584851247881284     0.0063670290888896966    0.005608000000000002     220.85627684263957
0.0019725258051318125     0.006334058177779392     0.005608000000000002     406.4466054696664
0.0019814814814814816     0.006400000000000001     0.005608000000000002     -7.322418362710285E-13
0.0019955221618251657     0.0063670290888896966    0.005608000000000002     200.25478837626275
0.002018518518518519      0.006400000000000001     0.005608000000000002     -6.573449457073072E-13
0.0018841224438208076     0.006202050092930009     0.005608000000000001     1367.2361197703385
0.0018700817634771238     0.0062350210040403135    0.005608000000000002     1228.2167649116618
0.0018560410831334397     0.006267991915150617     0.005608000000000002     1053.221347594908
0.001842000402789756      0.006300962826260923     0.005608000000000002     832.527752884021
0.001827959722446072      0.0063339337373712265    0.005608000000000002     566.1359807789967
0.0018139190421023884     0.006366904648481531     0.005608000000000002     276.5200107831682
0.0018506674722461786     0.006201925652521843     0.005608000000000002     1448.0376214536316
0.0018366267919024946     0.006234896563632146     0.005608000000000001     1309.854141528905
0.001822586111558811      0.006267867474742452     0.005608000000000002     1115.9264329080665
0.001808545431215127      0.006300838385852756     0.005608000000000002     876.3005468930928
0.0017945047508714429     0.006333809296963059     0.005608000000000002     593.9369500522579
0.0018172125006715497     0.006201801212113675     0.005608000000000001     1541.3867668641924
0.0018031718203278656     0.006234772123223981     0.005608000000000002     1402.8853030901846
0.001789131139984182      0.006267743034334285     0.005608000000000002     1190.0253031652605
0.001775090459640498      0.006300713945444588     0.005608000000000002     912.5887024241533
0.0017837575290969205     0.00620167677170551      0.005608000000000001     1647.2835560020217
0.0017697168487532367     0.006234647682815814     0.005608000000000001     1507.310249595499
0.0017556761684095526     0.0062676185939261175    0.005608000000000001     1232.4752678988534
0.0017503025575222914     0.006201552331297343     0.005608000000000001     1765.7279888671192
0.0017362618771786078     0.0062345232424076465    0.005608000000000001     1553.5966464763571
0.0017168475859476624     0.0062014278908891765    0.005608000000000001     1853.3901470678527
0.0019028222733859096     0.0061709441976475245    0.005608000000000001     1487.9088508875132
0.0018693673018112806     0.006170819757239359     0.005608000000000002     1567.7277781227976
0.0018359123302366515     0.006170695316831192     0.005608000000000001     1655.6928328641943
0.0018024573586620225     0.006170570876423026     0.005608000000000002     1757.3593901160955
0.0017690023870873936     0.006170446436014859     0.005608000000000001     1872.7274498784973
0.0017355474155127644     0.006170321995606692     0.005608000000000001     1985.8246208360608
0.0018880671313763826     0.0061397138619568754    0.005608000000000002     1623.6740543263131
0.0018546121598017535     0.006139589421548708     0.005608                 1723.893514257154
0.0018211571882271243     0.006139464981140542     0.005608000000000001     1838.7902882946978
0.0017877022166524954     0.006139340540732376     0.005608000000000002     1967.3885648427404
0.0017542472450778662     0.006139216100324208     0.005608                 2098.9347869028015
0.0018733119893668553     0.006108483526266225     0.005608000000000001     1727.138157501879
0.0018398570177922263     0.0061083590858580575    0.005608000000000002     1845.4554431094753
0.0018064020462175974     0.006108234645449892     0.005608000000000002     1987.283936443162
0.0017729470746429682     0.006108110205041725     0.005608000000000001     2137.4204727375954
0.0018585568473573283     0.006077253190575574     0.005608000000000001     1798.3011604142098
0.0018251018757826994     0.006077128750167408     0.005608000000000001     1932.4135646797558
0.00179164690420807       0.006077004309759241     0.005608                 2101.281678340447
0.001843801705347801      0.006046022854884924     0.005608000000000001     1837.1630630633063
0.001810346733773172      0.006045898414476758     0.005608000000000001     1990.518403711353
0.001829046563338274      0.006014792519194273     0.005608000000000001     1895.0656994747576
0.001995847393184823      0.006034543278489256     0.005608000000000001     1137.0193086231607
0.002021958354650003      0.0060599235729555945    0.005608000000000001     1008.4807598212069
0.001982802396886592      0.006062481820964076     0.005608000000000001     1272.2199429701332
0.0020089133583517716     0.006087862115430415     0.005608000000000002     1102.5429310083232
0.0020480693161151827     0.006085303867421933     0.005608000000000002     895.7515291479353
0.0020350243198169514     0.0061132424098967525    0.005608000000000001     962.9556005722799
0.002074180277580362      0.006110684161888272     0.005608000000000001     782.283862166941
0.0020611352812821312     0.006138622704363092     0.005608000000000002     820.9187051608828
0.002100291239045542      0.0061360644563546105    0.005608000000000001     668.0777588782232
0.0020872462427473106     0.006164002998829431     0.005608000000000001     676.4322447741351
0.002126402200510721      0.006161444750820949     0.005608000000000001     553.1332192817827
0.001969757400588361      0.006090420363438896     0.005608000000000002     1347.696219094093
0.0019958683620535404     0.006115800657905234     0.005608                 1136.8742523306594
0.00202197932351872       0.0061411809523715735    0.005608000000000001     976.2171823956969
0.0020480902849839        0.006166561246837912     0.005608000000000002     813.1105474853807
0.00195671240429013       0.0061183589059137155    0.005608000000000001     1383.1499733232013
0.0019828233657553096     0.006143739200380054     0.005608000000000002     1138.4063252638193
0.0020089343272204894     0.006169119494846393     0.005608000000000002     956.6795158299374
0.001943667407991899      0.006146297448388536     0.005608000000000001     1378.5812056574596
0.001969778369457079      0.006171677742854874     0.005608000000000001     1107.1391498078049
0.0019306224116936678     0.006174235990863355     0.005608000000000001     1333.9899160968664
0.001968047254877065      0.006031251485273425     0.005608000000000001     1274.6721183688815
0.001955002258578834      0.006059190027748245     0.005608000000000002     1395.953681102611
0.0019419572622806026     0.006087128570223066     0.005608000000000001     1488.422322898528
0.0019289122659823718     0.006115067112697886     0.005608000000000002     1533.645169293919
0.0019158672696841408     0.006143005655172706     0.005608000000000001     1531.6222202887855
0.001940247116569307      0.0060279596920575955    0.005608000000000002     1379.0552738777444
0.0019272021202710757     0.006055898234532415     0.005608                 1498.2298756285722
0.0019141571239728447     0.006083836777007235     0.005608000000000001     1587.6156677937452
0.0019011121276746137     0.006111775319482055     0.005608000000000002     1629.7556645583907
0.0019124469782615485     0.006024667898841764     0.005608000000000001     1494.1935935410756
0.0018994019819633175     0.006052606441316584     0.005608000000000002     1611.5877730491397
0.0018863569856650865     0.0060805449837914045    0.005608000000000002     1697.890715583566
0.0018846468399537904     0.006021376105625934     0.005608000000000001     1620.0870773588758
0.0018716018436555596     0.006049314648100755     0.005608000000000001     1736.0273733643119
0.0018568467016460322     0.006018084312410104     0.005608000000000001     1756.7357253311438
0.0023207609055080096     0.00582793289413276      0.005608000000000001     -357.41309978044075
0.0023506340879233412     0.005806610745110634     0.005608000000000001     -381.2845222648076
0.0023506340879233412     0.005845499633999523     0.005608000000000001     -330.143049916314
0.0023805072703386733     0.005824177484977397     0.005608000000000002     -334.0401331149458
0.002380507270338673      0.005785288596088507     0.005608000000000001     -298.09643232146067
0.0024103804527540046     0.005802855335955269     0.005608000000000001     -241.8586978837668
0.0024103804527540046     0.00576396644706638      0.005608                 -220.8383130097656
0.0024402536351693367     0.005781533186933143     0.005608000000000001     -155.4581972875494
0.0024402536351693363     0.005742644298044254     0.005608                 -149.51016432972216
0.0024701268175846684     0.005760211037911016     0.005608000000000001     -74.83863132629384
0.002470126817584668      0.005721322149022127     0.005608000000000001     -84.11198628133062
0.0025                    0.00573888888888889      0.005608000000000001     0
0.0025                    0.0057                   0.005608                 28.70219642146782
0.002380507270338673      0.005863066373866285     0.005608000000000002     -264.2588269821087
0.0024103804527540046     0.0058417442248441575    0.005608000000000001     -249.04362266099133
0.0024402536351693363     0.005820422075822031     0.005608000000000001     -160.24814713903243
0.0024701268175846684     0.0057990999267999045    0.005608000000000001     -77.2336062520354
0.0024999999999999996     0.0057777777777777775    0.005608                 0
0.0024103804527540046     0.005880633113733047     0.005608000000000002     -201.35409328164275
0.0024402536351693363     0.00585931096471092      0.005608000000000002     -165.03809699051544
0.0024701268175846684     0.005837988815688793     0.005608000000000002     -79.62858117777688
0.0025                    0.005816666666666666     0.005608000000000001     0
0.0024402536351693363     0.005898199853599809     0.005608000000000002     -141.42884881491636
0.0024701268175846684     0.005876877704577682     0.005608000000000002     -82.0235561035184
0.0024999999999999996     0.005855555555555555     0.005608000000000001     0
0.002470126817584668      0.00591576659346657      0.005608000000000002     -84.48309358192944
0.0025                    0.005894444444444444     0.005608000000000002     0
0.0024680553445218063     0.005682758612112168     0.005608000000000001     -181.88286971567226
0.002438182162106475      0.005704080761134295     0.005608000000000001     -303.74228439841363
0.002408308979691143      0.00572540291015642      0.005608                 -365.59746450296365
0.0023784357972758113     0.005746725059178547     0.005608000000000001     -433.5316512358557
0.0023485626148604796     0.005768047208200674     0.005608000000000001     -507.54484459708954
0.0023186894324451475     0.005789369357222801     0.005608000000000001     -518.8071013641487
0.002436110689043613      0.005665517224224335     0.005608                 -390.7724289565675
0.0024062375066282804     0.0056868393732464615    0.005608                 -495.67299676744506
0.0023763643242129488     0.005708161522268588     0.005608                 -566.8115919152759
0.002346491141797617      0.005729483671290715     0.005608000000000001     -644.0291936914489
0.0023166179593822854     0.005750805820312841     0.005608                 -696.7075104541675
0.002404166033565419      0.005648275836336503     0.005608                 -583.6153830904836
0.002374292851150087      0.00566959798535863      0.005608                 -671.5724532692029
0.0023444196687347554     0.005690920134380756     0.005608000000000001     -751.9944634603146
0.0023145464863194238     0.005712242283402882     0.005608000000000001     -843.4215740898029
0.002372221378087225      0.005631034448448671     0.005608                 -760.4117321174217
0.0023423481956718934     0.0056523565974707975    0.005608000000000001     -831.4406539036872
0.0023124750132565612     0.005673678746492923     0.005608                 -958.9492922710547
0.0023402767226090313     0.005613793060560837     0.005608                 -921.1614760373802