% Model:              stripline_filter_simple_decomp_new_mesh.mph
% Version:            COMSOL 6.1.0.252
% Date:               May 18 2023, 17:42
% Dimension:          3
% Nodes:              2539
% Expressions:        1
% Description:        Surface
% X                       Y                        Z                        imag(emw.Hz)
0.0025000000000000005     0.0061666666666666675    0.005608000000000002     -2.505830502353382
0.0025000000000000005     0.006205555555555556     0.005608000000000002     -4.011268887761441
0.0024754153711986884     0.0061754210656220655    0.005608000000000002     -3.24184291046856
0.0024754153711986884     0.006214309954510956     0.005608000000000002     -4.774526979934277
0.0025000000000000005     0.006244444444444446     0.005608000000000002     -5.094717886298226
0.0024754153711986884     0.006253198843399843     0.005608000000000002     -5.857975978471062
0.0025000000000000005     0.0062833333333333335    0.005608000000000002     -6.17816688483501
0.0024754153711986884     0.006292087732288733     0.005608000000000002     -6.941424977007845
0.0025                    0.006322222222222223     0.005608000000000001     -7.261615883371795
0.002475415371198688      0.006330976621177622     0.005608000000000002     -8.024873975544631
0.0025                    0.006361111111111112     0.005608000000000001     -8.345064881908582
0.002475415371198688      0.0063698655100665105    0.005608000000000001     -8.554706910238453
0.0025                    0.0064                   0.005608000000000001     -8.684385365254416
0.0024508307423973764     0.006184175464577464     0.005608000000000002     -4.091007621476896
0.0024508307423973764     0.006223064353466353     0.005608000000000002     -5.537785072107113
0.0024508307423973764     0.006261953242355242     0.005608000000000002     -6.621234070643898
0.0024508307423973764     0.00630084213124413      0.005608000000000002     -7.704683069180683
0.0024508307423973755     0.006339731020133019     0.005608                 -8.425028455222488
0.002426246113596064      0.006192929863532862     0.005608000000000002     -4.940172332485231
0.002426246113596064      0.006231818752421752     0.005608000000000002     -6.301043164279946
0.002426246113596064      0.00627070764131064      0.005608000000000002     -7.384492162816732
0.002426246113596064      0.006309596530199529     0.005608000000000001     -8.295350000206527
0.002401661484794752      0.00620168426248826      0.005608000000000001     -5.789337043493568
0.002401661484794752      0.006240573151377149     0.005608000000000001     -7.064301256452786
0.0024016614847947515     0.0062794620402660374    0.005608                 -8.16567154519056
0.00237707685599344       0.006210438661443659     0.005608000000000001     -6.638501754501901
0.00237707685599344       0.006249327550332548     0.005608000000000001     -8.035993090174603
0.002352492227192128      0.006219193060399057     0.005608000000000001     -7.749766892907472
0.0023497723985252427     0.006189526846155775     0.005608000000000001     -6.02042577073601
0.002374357027326555      0.006180772447200376     0.005608000000000002     -5.226437880303639
0.002347052569858358      0.006159860631912492     0.005608000000000002     -4.700750431750727
0.00237163719865967       0.006151106232957093     0.005608000000000001     -3.9199826016923094
0.002344332741191473      0.0061301944176692085    0.005608000000000001     -3.381075092765448
0.0023689173699927854     0.006121440018713811     0.005608000000000002     -2.61352732308098
0.0023416129125245883     0.006100528203425926     0.005608000000000001     -2.06139975378017
0.0023661975413259003     0.0060917738044705275    0.005608000000000001     -1.3070720444696504
0.0023388930838577036     0.006070861989182644     0.005608000000000001     -0.7417244147948875
0.0023634777126590157     0.006062107590227245     0.005608000000000001     0.34989806436013726
0.0023361732551908185     0.006041195774939361     0.005608000000000001     1.111382164716713
0.0023989416561278672     0.006172018048244977     0.005608000000000001     -4.291366550459804
0.002396221827460982      0.006142351834001695     0.005608000000000002     -2.9849112718484756
0.0023935019987940975     0.006112685619758413     0.005608000000000002     -1.678455993237145
0.0023907821701272124     0.006083019405515129     0.005608000000000001     -0.17904871029544026
0.0024235262849291793     0.006163263649289579     0.005608000000000002     -3.3562952206159697
0.0024208064562622946     0.006133597435046297     0.005608000000000002     -2.04983994200464
0.0024180866275954095     0.006103931220803015     0.005608000000000002     -0.7079954849510158
0.0024481109137304913     0.006154509250334181     0.005608000000000002     -2.4212238907721355
0.002445391085063606      0.006124843036090898     0.005608000000000002     -1.2369422596065922
0.0024726955425318034     0.006145754851378783     0.005608000000000002     -1.7658890342621676
0.002319162382989423      0.006213798391213762     0.005608000000000001     -8.985231628657374
0.0023164425543225385     0.006184132176970479     0.005608000000000002     -7.188942239205797
0.002285832538786719      0.006208403722028468     0.005608000000000002     -10.23634290458411
0.002283112710119834      0.006178737507785185     0.005608000000000001     -8.498542147087052
0.0022525026945840144     0.006203009052843172     0.005608000000000001     -11.487454180510852
0.0022497828659171293     0.00617334283859989      0.005608000000000002     -9.808142054968311
0.00221917285038131       0.006197614383657877     0.005608000000000001     -12.738565456437591
0.002216453021714425      0.006167948169414595     0.005608000000000001     -11.117741962849571
0.0021858430061786056     0.006192219714472582     0.005608000000000001     -13.989676732364321
0.0021831231775117205     0.0061625535002293       0.005608000000000001     -13.142305631748545
0.002152513161975901      0.006186825045287288     0.005608000000000001     -16.159628500920014
0.0023137227256556534     0.006154465962727196     0.005608                 -5.856046839846567
0.002280392881452949      0.006149071293541902     0.005608000000000001     -7.165646747727823
0.002247063037250245      0.006143676624356607     0.005608000000000002     -8.475246655609084
0.00221373319304754       0.006138281955171312     0.005608                 -10.286718747739073
0.002311002896988769      0.006124799748483914     0.005608000000000002     -4.523151440487342
0.0022776730527860646     0.006119405079298619     0.005608000000000002     -5.832751348368597
0.00224434320858336       0.006114010410113325     0.005608000000000001     -7.4311318637296
0.002308283068321884      0.006095133534240632     0.005608000000000001     -3.190256041128108
0.002274953224119179      0.0060897388650553354    0.005608                 -4.575544979720132
0.002305563239654999      0.006065467319997349     0.005608000000000001     -1.7199580957106673
0.0023634777126590157     0.006023218701338357     0.005608000000000001     2.8688193902210077
0.0023907821701272124     0.006044130516626241     0.005608000000000002     2.1810521749789684
0.0023907821701272124     0.006005241627737351     0.005608000000000002     4.378555382236229
0.0024180866275954095     0.006026153443025236     0.005608000000000002     3.661691455379342
0.0024180866275954095     0.005987264554136347     0.005608000000000002     5.888291374251443
0.002445391085063606      0.006008176369424231     0.005608000000000002     5.142330735779716
0.002445391085063606      0.005969287480535343     0.005608000000000002     7.398027366266659
0.0024726955425318034     0.005990199295823227     0.005608000000000002     6.622970016180091
0.002472695542531803      0.005951310406934337     0.005608000000000002     8.90776335828188
0.0025                    0.005972222222222222     0.005608000000000002     8.103609296580466
0.0025                    0.005933333333333333     0.005608000000000002     10.461919321033664
0.0024180866275954095     0.006065042331914124     0.005608000000000002     1.49454257443531
0.002445391085063606      0.00604706525831312      0.005608000000000002     2.9751818548356845
0.0024726955425318034     0.0060290881847121156    0.005608000000000002     4.455821135236059
0.0025                    0.006011111111111111     0.005608000000000002     5.936460415636432
0.002445391085063606      0.0060859541472020095    0.005608000000000002     0.8080329738916538
0.0024726955425318034     0.006067977073601005     0.005608000000000002     2.2886722542920266
0.0025000000000000005     0.00605                  0.005608000000000002     3.7693115346924015
0.002472695542531804      0.006106865962489895     0.005608000000000002     0.12152337334799442
0.0025000000000000005     0.0060888888888888885    0.005608000000000002     1.6021626537483693
0.0025000000000000005     0.006127777777777779     0.005608000000000002     -0.564986227195662
0.002277777777777778      0.0064                   0.005608                 -14.64456094089798
0.002290230186013503      0.0063698655100665105    0.005608000000000001     -13.434292040139457
0.002314814814814815      0.006400000000000001     0.005608000000000001     -12.867641624630181
0.00232726722305054       0.0063698655100665105    0.005608000000000001     -11.942998666048865
0.002302682594249228      0.00633973102013302      0.005608                 -12.403560012394884
0.0023397196312862647     0.00633973102013302      0.005608                 -11.018355707467544
0.0023151350024849526     0.006309596530199529     0.005608                 -11.372827984650298
0.00235217203952199       0.006309596530199529     0.005608000000000001     -10.093712748886222
0.002327587410720678      0.006279462040266038     0.005608                 -10.342095956905716
0.002364624447757715      0.006279462040266038     0.005608000000000001     -9.169069790304903
0.0023400398189564026     0.006249327550332548     0.005608                 -9.311363929161136
0.002351851851851852      0.006400000000000001     0.005608                 -11.882164669716836
0.0023643042600875767     0.00636986551006651      0.005608                 -10.95752171113552
0.002376756668323302      0.006339731020133019     0.005608                 -10.0328787525542
0.002389209076559027      0.006309596530199529     0.005608000000000001     -9.10823579397288
0.002388888888888889      0.0064                   0.005608                 -10.896687714803495
0.002401341297124614      0.0063698655100665105    0.005608                 -9.972044756222175
0.0024137937053603387     0.00633973102013302      0.005608000000000001     -9.047401797640855
0.002425925925925926      0.006400000000000001     0.005608                 -9.911210759890151
0.002438378334161651      0.0063698655100665105    0.005608000000000001     -8.98656780130883
0.002462962962962963      0.0064                   0.005608                 -8.925733804976812
0.0023067099747536984     0.006243932881147252     0.005608000000000002     -10.585446715657575
0.0022942575665179732     0.006274067371080743     0.005608000000000001     -11.72226781256541
0.0022818051582822485     0.006304201861014234     0.005608000000000001     -12.859088909473249
0.0022693527500465232     0.006334336350947724     0.005608000000000001     -13.995910006381092
0.0022569003418107985     0.006364470840881215     0.005608000000000001     -15.214268459638921
0.002273380130550994      0.006238538211961957     0.005608                 -11.778069359629793
0.0022609277223152686     0.0062686727018954475    0.005608                 -12.914890456537627
0.002248475314079544      0.00629880719182894      0.005608                 -14.051711553445466
0.0022360229058438186     0.006328941681762429     0.005608                 -15.388254797702668
0.002240050286348289      0.006233143542776663     0.005608000000000001     -12.970692003602004
0.002227597878112565      0.006263278032710154     0.005608000000000001     -14.10751310050983
0.0022151454698768397     0.006293412522643644     0.005608                 -15.5622411357664
0.002206720442145585      0.0062277488735913685    0.005608000000000001     -14.163314647574223
0.00219426803390986       0.006257883363524858     0.005608                 -15.73622747383013
0.0021733905979428804     0.006222354204406073     0.005608000000000001     -15.910213811893867
0.0020555555555555557     0.0064                   0.005608000000000002     -25.418014480271278
0.0020717151566256135     0.006364470840881215     0.005608000000000002     -24.04793161509223
0.002092592592592593      0.006400000000000001     0.005608000000000002     -23.71031281252789
0.0021087521936626503     0.006364470840881216     0.005608000000000002     -22.261148316470567
0.002087874757695671      0.006328941681762431     0.005608000000000002     -22.61072033969716
0.0021249117947327078     0.006328941681762429     0.005608000000000002     -20.81198382041326
0.0021040343587657283     0.006293412522643644     0.005608000000000002     -21.173509064302095
0.002141071395802765      0.006293412522643645     0.005608000000000002     -19.36281932435594
0.0021201939598357858     0.006257883363524858     0.005608000000000001     -19.73629778890703
0.002157230996872823      0.006257883363524858     0.005608000000000002     -17.91365482829862
0.0021363535609058436     0.006222354204406073     0.005608000000000001     -18.299086513511956
0.0021296296296296298     0.006400000000000001     0.005608000000000002     -21.96897718740749
0.002145789230699687      0.006364470840881215     0.005608000000000001     -20.51981269135017
0.0021619488317697446     0.00632894168176243      0.005608000000000001     -19.07064819529285
0.0021781084328398024     0.0062934125226436445    0.005608000000000001     -17.621483699235526
0.0021666666666666666     0.0064                   0.005608000000000001     -20.22764156228708
0.0021828262677367244     0.006364470840881216     0.005608000000000001     -18.77847706622976
0.0021989858688067822     0.00632894168176243      0.005608000000000001     -17.329312570172426
0.002203703703703704      0.006400000000000001     0.005608000000000001     -18.48630593716666
0.0022198633047737612     0.006364470840881215     0.005608000000000001     -17.03714144110935
0.002240740740740741      0.0064                   0.005608000000000001     -16.74497031204626
0.0021133572042124904     0.006189383293295769     0.005608000000000001     -17.978437148049622
0.002097197603142433      0.0062249124524145555    0.005608000000000002     -19.709164983922488
0.002081038002072375      0.00626044161153334      0.005608000000000002     -21.13442303865528
0.0020648784010023177     0.006295970770652126     0.005608000000000002     -22.5596810933881
0.00204871879993226       0.006331499929770911     0.005608000000000002     -23.984939148120922
0.0020325591988622025     0.0063670290888896966    0.005608000000000002     -25.287910361807505
0.00207420124644908       0.006191941541304251     0.005608000000000002     -19.344260440890988
0.002058041645379022      0.006227470700423036     0.005608000000000001     -21.02598289818274
0.0020418820443089646     0.006262999859541821     0.005608000000000002     -22.451240952915555
0.002025722443238907      0.006298529018660607     0.005608000000000002     -23.876499007648366
0.0020095628421688493     0.006334058177779392     0.005608000000000002     -25.174623222032235
0.0020350452886856688     0.0061944997893127315    0.005608000000000001     -20.710083733732336
0.0020188856876156114     0.006230028948431518     0.005608000000000002     -22.342800812443006
0.002002726086545554      0.006265558107550303     0.005608000000000002     -23.768058867175796
0.001986566485475496      0.006301087266669088     0.005608000000000002     -25.061336082256975
0.001995889330922258      0.006197058037321213     0.005608000000000001     -22.075907026573688
0.0019797297298522008     0.006232587196439998     0.005608000000000001     -23.659618726703258
0.001963570128782143      0.006268116355558784     0.005608000000000001     -24.948048942481698
0.001956733373158847      0.006199616285329694     0.005608000000000001     -23.44173031941505
0.0019405737720887897     0.006235145444448479     0.005608000000000001     -24.834761802706435
0.0019175774153954368     0.006202174533338175     0.005608000000000001     -24.252108031941486
0.0018333333333333335     0.006400000000000001     0.005608000000000002     -26.703926517270816
0.0018473740136770176     0.006367029088889697     0.005608000000000002     -26.5521076193766
0.0018703703703703708     0.006400000000000001     0.005608000000000002     -27.25559879307734
0.0018844110507140544     0.006367029088889697     0.005608000000000002     -26.743096427351716
0.0018614146940207012     0.006334058177779393     0.005608000000000002     -26.15618438140052
0.0018984517310577384     0.006334058177779392     0.005608000000000002     -26.23059406162612
0.0018754553743643852     0.006301087266669088     0.005608000000000002     -25.760261143424465
0.001912492411401422      0.006301087266669088     0.005608000000000002     -25.718091695900537
0.0018894960547080689     0.0062681163555587845    0.005608000000000001     -25.36433790544843
0.001926533091745106      0.0062681163555587845    0.005608000000000002     -25.205589330174924
0.0019035367350517527     0.006235145444448479     0.005608000000000001     -24.968414667472377
0.0019074074074074076     0.006400000000000001     0.005608000000000002     -26.861230566429718
0.0019214480877510914     0.0063670290888896966    0.005608000000000002     -26.348728200704137
0.0019354887680947752     0.006334058177779393     0.005608000000000002     -25.836225834978514
0.0019495294484384593     0.006301087266669088     0.005608000000000002     -25.323723469252926
0.0019444444444444446     0.006400000000000001     0.005608000000000002     -26.466862339782132
0.0019584851247881284     0.0063670290888896966    0.005608000000000002     -25.954359974056526
0.0019725258051318125     0.006334058177779392     0.005608000000000002     -25.4418576083309
0.0019814814814814816     0.006400000000000001     0.005608000000000002     -26.072494113134535
0.0019955221618251657     0.0063670290888896966    0.005608000000000002     -25.5599917474089
0.002018518518518519      0.006400000000000001     0.005608000000000002     -25.67812588648692
0.0018841224438208076     0.006202050092930009     0.005608000000000001     -23.12025866267477
0.0018700817634771238     0.0062350210040403135    0.005608000000000002     -23.882551334275668
0.0018560410831334397     0.006267991915150617     0.005608000000000002     -24.161895444502143
0.001842000402789756      0.006300962826260923     0.005608000000000002     -24.44123955472871
0.001827959722446072      0.0063339337373712265    0.005608000000000002     -24.720583664955186
0.0018139190421023884     0.006366904648481531     0.005608000000000002     -24.914106920660185
0.0018506674722461786     0.006201925652521843     0.005608000000000002     -22.249664130116535
0.0018366267919024946     0.006234896563632146     0.005608000000000001     -22.915728524703557
0.001822586111558811      0.006267867474742452     0.005608000000000002     -23.195072634930053
0.001808545431215127      0.006300838385852756     0.005608000000000002     -23.47441674515657
0.0017945047508714429     0.006333809296963059     0.005608000000000002     -23.597307575276687
0.0018172125006715497     0.006201801212113675     0.005608000000000001     -21.379069597558317
0.0018031718203278656     0.006234772123223981     0.005608000000000002     -21.948905715131453
0.001789131139984182      0.006267743034334285     0.005608000000000002     -22.22824982535792
0.001775090459640498      0.006300713945444588     0.005608000000000002     -22.28050822989322
0.0017837575290969205     0.00620167677170551      0.005608000000000001     -20.508475065000134
0.0017697168487532367     0.006234647682815814     0.005608000000000001     -20.98208290555933
0.0017556761684095526     0.0062676185939261175    0.005608000000000001     -20.96370888450968
0.0017503025575222914     0.006201552331297343     0.005608000000000001     -19.637880532441912
0.0017362618771786078     0.0062345232424076465    0.005608000000000001     -19.64690953912619
0.0017168475859476624     0.0062014278908891765    0.005608000000000001     -18.076992924832243
0.0019028222733859096     0.0061709441976475245    0.005608000000000001     -22.13103466345084
0.0018693673018112806     0.006170819757239359     0.005608000000000002     -21.47774139575069
0.0018359123302366515     0.006170695316831192     0.005608000000000001     -20.703375140206354
0.0018024573586620225     0.006170570876423026     0.005608000000000002     -19.929008884662096
0.0017690023870873936     0.006170446436014859     0.005608000000000001     -19.15464262911774
0.0017355474155127644     0.006170321995606692     0.005608000000000001     -18.144822685697413
0.0018880671313763826     0.0061397138619568754    0.005608000000000002     -20.885790272830004
0.0018546121598017535     0.006139589421548708     0.005608                 -20.318172690201052
0.0018211571882271243     0.006139464981140542     0.005608000000000001     -19.543806434656744
0.0017877022166524954     0.006139340540732376     0.005608000000000002     -18.76944017911247
0.0017542472450778662     0.006139216100324208     0.005608                 -17.798391818280194
0.0018733119893668553     0.006108483526266225     0.005608000000000001     -19.640545882209153
0.0018398570177922263     0.0061083590858580575    0.005608000000000002     -19.158603984651446
0.0018064020462175974     0.006108234645449892     0.005608000000000002     -18.3842377291071
0.0017729470746429682     0.006108110205041725     0.005608000000000001     -17.451960950862947
0.0018585568473573283     0.006077253190575574     0.005608000000000001     -18.39530149158829
0.0018251018757826994     0.006077128750167408     0.005608000000000001     -17.99903527910178
0.00179164690420807       0.006077004309759241     0.005608                 -17.105530083445707
0.001843801705347801      0.006046022854884924     0.005608000000000001     -17.15005710096742
0.001810346733773172      0.006045898414476758     0.005608000000000001     -16.759099216028513
0.001829046563338274      0.006014792519194273     0.005608000000000001     -15.60698450728993
0.001995847393184823      0.006034543278489256     0.005608000000000001     -14.529494363524313
0.002021958354650003      0.0060599235729555945    0.005608000000000001     -14.685652336054032
0.001982802396886592      0.006062481820964076     0.005608000000000001     -16.57737029499755
0.0020089133583517716     0.006087862115430415     0.005608000000000002     -16.413194616133033
0.0020480693161151827     0.006085303867421933     0.005608000000000002     -14.947134384851186
0.0020350243198169514     0.0061132424098967525    0.005608000000000001     -16.72813780382718
0.002074180277580362      0.006110684161888272     0.005608000000000001     -15.208616433648313
0.0020611352812821312     0.006138622704363092     0.005608000000000002     -17.04308099152132
0.002100291239045542      0.0061360644563546105    0.005608000000000001     -15.470098482445458
0.0020872462427473106     0.006164002998829431     0.005608000000000001     -17.358024179215455
0.002126402200510721      0.006161444750820949     0.005608000000000001     -15.73158053124259
0.001969757400588361      0.006090420363438896     0.005608000000000002     -18.0706954835301
0.0019958683620535404     0.006115800657905234     0.005608                 -18.142966475249615
0.00202197932351872       0.0061411809523715735    0.005608000000000001     -18.457909662943763
0.0020480902849839        0.006166561246837912     0.005608000000000002     -18.772852850637896
0.00195671240429013       0.0061183589059137155    0.005608000000000001     -19.564020672062632
0.0019828233657553096     0.006143739200380054     0.005608000000000002     -19.87273833436619
0.0020089343272204894     0.006169119494846393     0.005608000000000002     -20.187681522060338
0.001943667407991899      0.006146297448388536     0.005608000000000001     -21.057345860595188
0.001969778369457079      0.006171677742854874     0.005608000000000001     -21.60251019348278
0.0019306224116936678     0.006174235990863355     0.005608000000000001     -22.550671049127722
0.001968047254877065      0.006031251485273425     0.005608000000000001     -14.958690157075308
0.001955002258578834      0.006059190027748245     0.005608000000000002     -16.98244760381263
0.0019419572622806026     0.006087128570223066     0.005608000000000001     -18.239326121761135
0.0019289122659823718     0.006115067112697886     0.005608000000000002     -19.496204639709674
0.0019158672696841408     0.006143005655172706     0.005608000000000001     -20.753083157658168
0.001940247116569307      0.0060279596920575955    0.005608000000000002     -15.102739798441627
0.0019272021202710757     0.006055898234532415     0.005608                 -16.908406046069064
0.0019141571239728447     0.006083836777007235     0.005608000000000001     -18.165284564017583
0.0019011121276746137     0.006111775319482055     0.005608000000000002     -19.42216308196613
0.0019124469782615485     0.006024667898841764     0.005608000000000001     -15.246789439807948
0.0018994019819633175     0.006052606441316584     0.005608000000000002     -16.834364488325512
0.0018863569856650865     0.0060805449837914045    0.005608000000000002     -18.091243006274038
0.0018846468399537904     0.006021376105625934     0.005608000000000001     -15.39083908117425
0.0018716018436555596     0.006049314648100755     0.005608000000000001     -16.760322930581964
0.0018568467016460322     0.006018084312410104     0.005608000000000001     -15.534888722540586
0.0023207609055080096     0.00582793289413276      0.005608000000000001     11.721148673045986
0.0023506340879233412     0.005806610745110634     0.005608000000000001     13.431227565849039
0.0023506340879233412     0.005845499633999523     0.005608000000000001     11.742295997751075
0.0023805072703386733     0.005824177484977397     0.005608000000000002     13.150940841668316
0.002380507270338673      0.005785288596088507     0.005608000000000001     14.44209485284065
0.0024103804527540046     0.005802855335955269     0.005608000000000001     14.137455317305097
0.0024103804527540046     0.00576396644706638      0.005608                 15.452962139832247
0.0024402536351693367     0.005781533186933143     0.005608000000000001     15.123969792941866
0.0024402536351693363     0.005742644298044254     0.005608                 16.463829426823857
0.0024701268175846684     0.005760211037911016     0.005608000000000001     16.11048426857863
0.002470126817584668      0.005721322149022127     0.005608000000000001     17.474696713815455
0.0025                    0.00573888888888889      0.005608000000000001     17.096998744215405
0.0025                    0.0057                   0.005608                 18.442872630154437
0.002380507270338673      0.005863066373866285     0.005608000000000002     11.505336776758515
0.0024103804527540046     0.0058417442248441575    0.005608000000000001     12.828207420963372
0.0024402536351693363     0.005820422075822031     0.005608000000000001     13.814721896600147
0.0024701268175846684     0.0057990999267999045    0.005608000000000001     14.801236372236914
0.0024999999999999996     0.0057777777777777775    0.005608                 15.787750847873683
0.0024103804527540046     0.005880633113733047     0.005608000000000002     11.268377555765946
0.0024402536351693363     0.00585931096471092      0.005608000000000002     12.505474000258424
0.0024701268175846684     0.005837988815688793     0.005608000000000002     13.491988475895194
0.0025                    0.005816666666666666     0.005608000000000001     14.478502951531969
0.0024402536351693363     0.005898199853599809     0.005608000000000002     11.031418334773383
0.0024701268175846684     0.005876877704577682     0.005608000000000002     12.182740579553474
0.0024999999999999996     0.005855555555555555     0.005608000000000001     13.169255055190247
0.002470126817584668      0.00591576659346657      0.005608000000000002     10.794459113780814
0.0025                    0.005894444444444444     0.005608000000000002     11.860007158848527
0.0024680553445218063     0.005682758612112168     0.005608000000000001     17.995289976348015
0.002438182162106475      0.005704080761134295     0.005608000000000001     17.002483938114988
0.002408308979691143      0.00572540291015642      0.005608                 15.967263839768552
0.0023784357972758113     0.005746725059178547     0.005608000000000001     14.932043741422127
0.0023485626148604796     0.005768047208200674     0.005608000000000001     13.896823643075702
0.0023186894324451475     0.005789369357222801     0.005608000000000001     12.622253046675938
0.002436110689043613      0.005665517224224335     0.005608                 17.529394327742924
0.0024062375066282804     0.0056868393732464615    0.005608                 16.47530661351943
0.0023763643242129488     0.005708161522268588     0.005608                 15.440086515172993
0.002346491141797617      0.005729483671290715     0.005608000000000001     14.404866416826565
0.0023166179593822854     0.005750805820312841     0.005608                 13.233743369261889
0.002404166033565419      0.005648275836336503     0.005608                 17.06349867913784
0.002374292851150087      0.00566959798535863      0.005608                 15.948129288923864
0.0023444196687347554     0.005690920134380756     0.005608000000000001     14.912909190577436
0.0023145464863194238     0.005712242283402882     0.005608000000000001     13.845233691847834
0.002372221378087225      0.005631034448448671     0.005608                 16.597603030532767