% Model:              stripline_filter_simple_decomp_new_mesh.mph
% Version:            COMSOL 6.1.0.252
% Date:               May 19 2023, 20:23
% Dimension:          3
% Nodes:              2746
% Expressions:        1
% Description:        Surface
% X                       Y                        Z                        real(emw.Hx)
0.002032684822881224      0.0057839522424041724    0.005608000000000001     -41.12187679964805
0.0020390419771398175     0.005819658115363282     0.005608000000000001     -37.871986660584966
0.002000404191863602      0.005804921951435363     0.005608000000000001     -38.25778947506943
0.0020067613461221957     0.005840627824394473     0.005608000000000001     -35.413264987245775
0.0020453991313984106     0.005855363988322392     0.005608000000000001     -35.44656489587793
0.0020131185003807893     0.005876333697353583     0.005608                 -32.73456503470975
0.002051756285657004      0.0058910698612815015    0.005608000000000001     -33.021143131170845
0.0020194756546393824     0.005912039570312692     0.005608000000000001     -30.055865082173717
0.0020581134399155973     0.005926775734240612     0.005608                 -30.595721366463785
0.002025832808897976      0.005947745443271803     0.005608000000000001     -28.04112241653202
0.002064470594174191      0.0059624816071997214    0.005608000000000001     -28.24717079291896
0.0019681235608459803     0.005825891660466554     0.005608000000000001     -35.21025193489573
0.001974480715104574      0.0058615975334256635    0.005608                 -32.27457682760696
0.0019808378693631674     0.005897303406384774     0.005608                 -29.595876875070925
0.0019871950236217606     0.005933009279343883     0.005608000000000001     -27.16045765435366
0.0019358429298283587     0.005846861369497745     0.005608000000000001     -32.16271439472206
0.001942200084086952      0.005882567242456855     0.005608                 -29.135888667968146
0.0019485572383455456     0.005918273115415965     0.005608000000000001     -26.279792892175262
0.0019035622988107371     0.0058678310785289355    0.005608                 -29.115176854548388
0.0019099194530693307     0.0059035369514880455    0.005608000000000001     -25.39912812999686
0.0018712816677931153     0.005888800787560126     0.005608000000000001     -24.76270172878879
0.0020890596503191365     0.006111698719442691     0.005608000000000001     -13.700426043305432
0.002060039161657155      0.006107800020383233     0.005608000000000001     -12.05082493568762
0.0020841418390901475     0.0060818552969940974    0.005608000000000001     -16.26634099021193
0.0020551213504281657     0.006077956597934639     0.005608000000000001     -14.631138691779377
0.0020310186729951734     0.006103901321323775     0.005608000000000001     -10.179058408524906
0.002026100861766184      0.006074057898875181     0.005608                 -13.211405833913442
0.0020019981843331916     0.0061000026222643175    0.005608000000000001     -8.307291881362172
0.0019970803731042025     0.006070159199815723     0.005608000000000001     -11.791672976047478
0.00197297769567121       0.006096103923204859     0.005608                 -6.435525354199427
0.001968059884442221      0.006066260500756266     0.005608000000000001     -9.393645422922573
0.0019439572070092284     0.006092205224145402     0.005608000000000001     -3.501591977166092
0.0020792240278611584     0.006052011874545503     0.005608000000000001     -18.825123971714447
0.0020502035391991766     0.006048113175486045     0.005608                 -17.235586155183242
0.0020211830505371953     0.006044214476426587     0.005608                 -15.8158532973173
0.0019921625618752135     0.00604031577736713      0.005608000000000001     -14.104619370184558
0.0020743062166321694     0.006022168452096909     0.005608000000000001     -21.38390695321698
0.0020452857279701876     0.006018269753037451     0.005608                 -19.840033618587086
0.002016265239308206      0.006014371053977993     0.005608000000000001     -18.81559331744658
0.00206938840540318       0.005992325029648316     0.005608                 -23.942689934719446
0.0020403679167411985     0.005988426330588858     0.005608000000000001     -23.52656726470858
0.002001730131464983      0.005973690166660938     0.005608000000000001     -23.307312130172182
0.001977627454031991      0.005999634890050074     0.005608                 -17.909544556917957
0.001953524776598998      0.00602557961343921      0.005608000000000001     -12.511776983663804
0.001929422099166006      0.006051524336828346     0.005608000000000001     -7.156175850837368
0.0019630923461887682     0.005958954002733019     0.005608                 -22.0059708129182
0.0019389896687557757     0.005984898726122155     0.005608                 -16.608203239664043
0.0019148869913227832     0.006010843449511291     0.005608000000000001     -11.230761892640086
0.0019244545609125529     0.0059442178388051       0.005608                 -20.704629495664243
0.0019003518834795606     0.005970162562194237     0.005608000000000001     -15.305347934442876
0.0018858167756363382     0.005929481674877181     0.005608000000000001     -19.379933976245628
0.002332020083763976      0.005449970973871018     0.005608000000000001     -11.623800922182582
0.0023059745543348763     0.005440397716455321     0.005608000000000001     -12.320834263763553
0.002331257142903843      0.005412779348435579     0.005608000000000001     -9.01284821007631
0.0023052116134747425     0.0054032060910198815    0.005608000000000001     -9.739076256775771
0.0022799290249057758     0.005430824459039623     0.005608000000000001     -13.132897327204482
0.0022791660840456424     0.005393632833604184     0.005608                 -10.327285023453406
0.002253883495476676      0.005421251201623924     0.005608000000000001     -13.944960390645399
0.0022531205546165423     0.005384059576188485     0.005608000000000001     -10.915493790131059
0.002227837966047576      0.005411677944208227     0.005608                 -14.757023454086347
0.0022270750251874426     0.005374486318772789     0.005608000000000001     -11.397953148860726
0.002201792436618476      0.0054021046867925296    0.005608000000000001     -15.361181521494814
0.0023304942020437092     0.00537558772300014      0.005608000000000001     -6.860629115050605
0.002304448672614609      0.005366014465584442     0.005608                 -7.469484877060481
0.0022784031431855095     0.005356441208168744     0.005608                 -8.057693643738121
0.0022523576137564094     0.005346867950753047     0.005608000000000001     -8.43652150675226
0.002329731261183576      0.005338396097564702     0.005608000000000001     -4.7084100200249175
0.002303685731754476      0.005328822840149004     0.005608                 -5.199893497345194
0.0022776402023253757     0.005319249582733306     0.005608000000000001     -5.475089864643818
0.0023289683203234425     0.005301204472129262     0.005608                 -2.5561909249992087
0.002302922790894343      0.005291631214713565     0.005608000000000001     -2.5136582225353767
0.002328205379463309      0.005264012846693824     0.005608000000000001     0.1397820322925669
0.002200079966107845      0.0054293910841331896    0.005608000000000001     -18.592360474197605
0.002226125495536945      0.0054389643415488865    0.005608000000000001     -17.867051702472615
0.002252171024966045      0.005448537598964584     0.005608                 -16.831134342268406
0.002278216554395145      0.005458110856380281     0.005608000000000001     -15.79521698206418
0.0023042620838242454     0.00546768411379598      0.005608000000000001     -14.769155820187702
0.002198367495597214      0.005456677481473848     0.005608000000000001     -20.860948556691127
0.002224413025026314      0.005466250738889546     0.005608                 -19.99335043329656
0.002250458554455414      0.005475823996305243     0.005608                 -18.957433073092346
0.0022765040838845143     0.005485397253720941     0.005608000000000001     -17.994939866645133
0.0021966550250865835     0.005483963878814507     0.005608000000000001     -23.12953663918468
0.0022227005545156836     0.005493537136230204     0.005608                 -22.11964916412051
0.0022487460839447837     0.005503110393645903     0.005608000000000001     -21.22072391310261
0.0021949425545759525     0.005511250276155166     0.005608                 -25.39812472167823
0.0022209880840050526     0.005520823533570864     0.005608000000000001     -24.44650795956006
0.0021932300840653216     0.005538536673495825     0.005608000000000001     -27.875846248532728
0.002191942981519332      0.005571009887625482     0.005608000000000001     -30.010870407316
0.0021627970558418027     0.00555244885479486      0.005608000000000001     -30.14403338990601
0.002161509953295813      0.0055849220689245145    0.005608000000000001     -32.19201347770972
0.0021906558789733426     0.005603483101755137     0.005608000000000001     -31.618562183267798
0.0021602228507498237     0.005617395283054171     0.005608                 -33.890655434167954
0.002189368776427353      0.005635956315884792     0.005608000000000001     -33.226253959219605
0.0021589357482038342     0.005649868497183826     0.005608000000000001     -35.58929739062617
0.0021880816738813636     0.005668429530014448     0.005608                 -34.833945735171426
0.0021576486456578448     0.0056823417113134825    0.005608000000000001     -37.68199444681598
0.002186794571335374      0.005700902744144104     0.005608000000000001     -36.57424627402139
0.002132364027618284      0.005566361036093894     0.005608000000000001     -32.64439632790831
0.002131076925072294      0.005598834250223549     0.005608                 -34.57691868921587
0.002129789822526305      0.0056313074643532055    0.005608                 -36.275560645674105
0.0021285027199803154     0.00566378067848286      0.005608000000000001     -38.30545291617385
0.0021019309993947645     0.0055802732173929285    0.005608000000000001     -35.1447592659106
0.002100643896848775      0.005612746431522583     0.005608                 -36.96182390072201
0.0020993567943027856     0.00564521964565224      0.005608000000000001     -38.92891138553175
0.0020714979711712457     0.005594185398691962     0.005608                 -37.64512220391291
0.002070210868625256      0.005626658612821619     0.005608000000000001     -39.55236985488963
0.002041064942947727      0.0056080975799909965    0.005608000000000001     -40.277031717717755
0.0021559726216445444     0.005717512643796118     0.005608000000000001     -37.97595971294561
0.002126826695967015      0.005698951610965496     0.005608000000000001     -38.85018522638801
0.002125150671953714      0.0057341225434481315    0.005608000000000001     -38.84816801705972
0.0020960047462761848     0.005715561510617509     0.005608                 -39.6243209062285
0.002094328722262884      0.005750732443100145     0.005608000000000001     -39.720376321173816
0.0020651827965853546     0.005732171410269523     0.005608000000000001     -40.398456586068974
0.002063506772572054      0.005767342342752158     0.005608                 -40.592584625287934
0.002034360846894525      0.005748781309921538     0.005608000000000001     -41.355112298289086
0.002097680770289485      0.005680390578134874     0.005608                 -39.41083891005587
0.002066858820598655      0.005697000477786888     0.005608                 -40.18497458989634
0.002036036870907825      0.005713610377438902     0.005608000000000001     -41.10375888681981
0.0020685348446119554     0.0056618295453042524    0.005608                 -39.97149259372371
0.0020377128949211256     0.005678439444956267     0.005608000000000001     -40.85240547535054
0.0020393889189344264     0.005643268512473632     0.005608000000000001     -40.60105206388129
0.0022221259523169845     0.005554370301894298     0.005608000000000001     -26.725761674896123
0.0022498839522567156     0.005536657161969336     0.005608000000000001     -23.148175947990254
0.002277641952196446      0.005518944022044375     0.005608                 -19.858823946103506
0.002305399952136177      0.005501230882119412     0.005608000000000001     -16.56947194421676
0.0023331579520759083     0.005483517742194452     0.005608000000000001     -13.551334737043257
0.0022510218205686475     0.005570203930292769     0.005608000000000001     -25.13436786026951
0.002278779820508378      0.005552490790367808     0.005608                 -21.649283871804876
0.002306537820448109      0.0055347776504428466    0.005608                 -18.35993186991812
0.00233429582038784       0.005517064510517885     0.005608000000000001     -15.050239656795146
0.00227991768882031       0.005586037558691241     0.005608000000000001     -23.54297404564291
0.0023076756887600407     0.00556832441876628      0.005608                 -20.150391795619477
0.002335433688699772      0.0055506112788413185    0.005608000000000001     -16.549144576547043
0.002308813557071973      0.005601871187089713     0.005608                 -21.951580231016315
0.002336571557011704      0.005584158047164752     0.005608000000000001     -18.04804949629893
0.002337709425323636      0.005617704815488185     0.005608000000000001     -19.738853985958176
0.002220838849770995      0.005586843516023953     0.005608000000000001     -28.53073699536059
0.0022497347180226576     0.005602677144422425     0.005608                 -26.846841442292792
0.0022786305862743206     0.005618510772820897     0.005608000000000001     -25.162945889224993
0.0023075264545259835     0.00563434440121937      0.005608000000000001     -23.366696083286843
0.0022195517472250056     0.005619316730153609     0.005608                 -30.047478590805994
0.0022484476154766685     0.005635150358552081     0.005608                 -28.363583037738177
0.002277343483728331      0.005650983986950553     0.005608000000000001     -26.610654286086053
0.002218264644679016      0.0056517899442832635    0.005608                 -31.56422018625138
0.002247160512930679      0.005667623572681736     0.005608000000000001     -29.854612488885262
0.0022169775421330266     0.005684263158412921     0.005608000000000001     -33.09857069168451
0.002365616067011181      0.005464976779096815     0.005608000000000001     -9.994904319728906
0.002366753935323113      0.005498523547420248     0.005608000000000001     -11.418195702842407
0.0023992120502583855     0.005479982584322611     0.005608000000000001     -7.826844951742315
0.0024003499185703174     0.005513529352646044     0.005608                 -9.01384187392831
0.0024328080335055905     0.0054949883895484075    0.005608000000000001     -5.658785583755713
0.0024339459018175224     0.005528535157871841     0.005608000000000001     -6.609488045014231
0.002466404016752795      0.0055099941947742035    0.005608                 -3.4907262157691124
0.0024675418850647274     0.005543540963097638     0.005608000000000001     -4.084109024295959
0.0025                    0.005525                 0.005608000000000001     -0.9204415351039397
0.0023678918036350444     0.005532070315743681     0.005608                 -12.625545616644835
0.0024014877868822494     0.005547076120969477     0.005608                 -10.221191787730742
0.0024350837701294543     0.005562081926195275     0.005608000000000001     -7.8135073570267
0.0023690296719469763     0.0055656170840671145    0.005608                 -13.83289553044726
0.0024026256551941813     0.0055806228892929105    0.005608000000000001     -11.542905689757442
0.002370167540258909      0.005599163852390549     0.005608000000000001     -15.272304022488186
0.002115135741302866      0.00609886940128053      0.005608000000000001     -15.500466901200994
0.00211490910161762       0.0061369991366490495    0.005608000000000001     -12.63919232517114
0.0021409851926013496     0.006124169818486888     0.005608000000000001     -14.413727439194043
0.0021412118322865956     0.006086040083118369     0.005608000000000001     -17.03790410314236
0.0021670612835850787     0.006111340500324727     0.005608                 -15.828149047466713
0.002167287923270325      0.006073210764956208     0.005608000000000001     -18.575341305083718
0.0021931373745688086     0.0060985111821625654    0.005608000000000001     -17.242570655739414
0.0021933640142540547     0.006060381446794047     0.005608                 -20.112778507025084
0.002219213465552538      0.006085681864000406     0.005608000000000001     -18.499665288267295
0.0022194401052377842     0.006047552128631886     0.005608000000000001     -21.718559917734936
0.0021407585529161035     0.006162299553855407     0.005608000000000001     -11.934256970517815
0.002166834643899833      0.006149470235693247     0.005608                 -13.455665802773517
0.0021929107348835626     0.006136640917531086     0.005608                 -14.870087411046201
0.002218986825867292      0.006123811599368924     0.005608000000000001     -16.303642628398222
0.002166608004214587      0.006187599971061766     0.005608000000000001     -11.229321615864503
0.0021926840951983165     0.0061747706528996055    0.005608                 -12.497604166353032
0.002218760186182046      0.006161941334737445     0.005608000000000001     -14.10761996852915
0.0021924574555130705     0.006212900388268125     0.005608                 -10.524386261211172
0.0022185335464968        0.006200071070105964     0.005608000000000001     -11.911597308660093
0.002218306906811554      0.006238200805474483     0.005608000000000001     -9.937666071545951
0.002110217930073877      0.006069025978831936     0.005608000000000001     -18.142263226388614
0.0021053001188448875     0.006039182556383342     0.005608                 -20.655381725989713
0.0021003823076158985     0.006009339133934748     0.005608000000000001     -23.168500225590897
0.00209546449638691       0.005979495711486155     0.005608000000000001     -27.038524897984328
0.0021362940210576066     0.006056196660669775     0.005608                 -19.802716021998613
0.002131376209828617      0.006026353238221181     0.005608                 -22.31583452159978
0.0021264583985996285     0.005996509815772587     0.005608000000000001     -25.743378230939104
0.0021623701120413357     0.006043367342507613     0.005608                 -21.463168817608675
0.002157452300812347      0.00601352392005902      0.005608000000000001     -24.448231563893877
0.0021884462030250657     0.006030538024345454     0.005608000000000001     -23.153084896848668
0.0021880253744434213     0.00573467204445945      0.005608000000000001     -35.71419710270582
0.0021572034247525915     0.005751281944111462     0.005608000000000001     -36.91947609215609
0.0021892561775514684     0.005768441344774793     0.005608000000000001     -35.10672025528926
0.0021584342278606382     0.005785051244426807     0.005608                 -36.17656430114121
0.0021904869806595156     0.005802210645090138     0.005608000000000001     -34.49924340787271
0.0021596650309686854     0.005818820544742151     0.005608000000000001     -35.433652510126265
0.0021917177837675627     0.005835979945405483     0.005608                 -33.89176656045616
0.002160895834076733      0.005852589845057497     0.005608000000000001     -35.01962406098217
0.00219294858687561       0.005869749245720828     0.005608000000000001     -33.32107257330829
0.002126381475061761      0.005767891843763476     0.005608                 -37.889757020543854
0.0021276122781698084     0.0058016611440788205    0.005608                 -37.146845229528914
0.0021288430812778556     0.0058354304443941655    0.005608000000000001     -36.378177464222276
0.002095559525370931      0.00578450174341549      0.005608                 -38.86003794893156
0.0020967903284789782     0.005818271043730835     0.005608000000000001     -37.736730867462455
0.0020647375756801013     0.005801111643067503     0.005608000000000001     -39.095284270702585
0.0020901661927144747     0.005943935134903943     0.005608000000000001     -30.161066322509342
0.0021211600949271932     0.005960949239190375     0.005608000000000001     -28.912829658345903
0.0021158617912547585     0.005925388662608164     0.005608000000000001     -31.003880361194177
0.002146855693467477      0.005942402766894597     0.005608                 -29.430228245915135
0.0021415573897950423     0.0059068421903123855    0.005608000000000001     -31.846694399879027
0.002172551292007761      0.005923856294598818     0.005608000000000001     -29.947626833484357
0.002167252988335326      0.005888295718016606     0.005608                 -32.68950843856386
0.002198246890548045      0.00590530982230304      0.005608000000000001     -30.34396870730083
0.002152153997139912      0.005977963343476809     0.005608                 -27.17520202824653
0.002177849595680196      0.0059594168711810305    0.005608                 -27.692600615815753
0.0022035451942204794     0.005940870398885251     0.005608000000000001     -28.203205783042975
0.0021831478993526304     0.005994977447763241     0.005608                 -25.437574398147174
0.0022088434978929147     0.0059764309754674625    0.005608000000000001     -26.062442858785083
0.0022141418015653495     0.006011991552049675     0.005608000000000001     -23.921679934527237
0.0020838090384558815     0.005908229261944833     0.005608000000000001     -31.843818933451526
0.002077451884197288      0.005872523388985723     0.005608                 -34.01596251032964
0.0020710947299386944     0.005836817516026613     0.005608000000000001     -36.188106087207785
0.002109504636996165      0.005889682789649054     0.005608                 -33.01204842325201
0.002103147482737572      0.005853976916689945     0.005608                 -35.18419200013011
0.002135200235536449      0.005871136317353275     0.005608                 -34.18027791305249
0.002338748189314041      0.005650988219212565     0.005608000000000001     -20.249181463254843
0.0023085652185163884     0.005667627804943748     0.005608000000000001     -23.801444874693928
0.0023397869533044457     0.005684271622936943     0.005608000000000001     -20.643689740243786
0.0023096039825067933     0.0057009112086681265    0.005608                 -24.348547918971345
0.00234082571729485       0.005717555026661322     0.005608000000000001     -21.038198017232737
0.0023106427464971977     0.005734194612392505     0.005608000000000001     -24.895650963248784
0.002341864481285255      0.0057508384303857005    0.005608                 -21.432706294221695
0.002311681510487603      0.005767478016116885     0.005608000000000001     -25.455531780481287
0.00234290324527566       0.005784121834110079     0.005608000000000001     -21.796089687904956
0.002278382247718736      0.005684267390674931     0.005608                 -27.088724131779152
0.002279421011709141      0.00571755079439931      0.005608                 -27.63582717605658
0.0022804597756995457     0.005750834198123689     0.005608000000000001     -28.135986310888313
0.0022481992769210835     0.005700906976406114     0.005608                 -30.376003388864383
0.0022492380409114884     0.005734190380130494     0.005608000000000001     -30.816440841295353
0.0022180163061234315     0.0057175465621373       0.005608000000000001     -33.49689537170241
0.00222293951855562       0.005852623763398679     0.005608000000000001     -31.491707515260863
0.002221708715447573      0.005818854463083334     0.005608000000000001     -31.91438238600061
0.0022204779123395253     0.005785085162767989     0.005608                 -32.38642428981879
0.0022192471092314786     0.005751315862452644     0.005608000000000001     -32.858466193637014
0.0022529304502356302     0.005835498281076528     0.005608000000000001     -29.165999599897592
0.0022516996471275827     0.005801728980761183     0.005608                 -29.765691441812514
0.002250468844019536      0.005767959680445839     0.005608                 -30.23773334563073
0.00228292138191564       0.005818372798754379     0.005608000000000001     -26.84029168453433
0.0022816905788075924     0.005784603498439034     0.005608                 -27.617000497624453
0.00231291231359565       0.005801247316432229     0.005608                 -24.51458376917104
0.0025                    0.0057                   0.005608                 -0.9259596554582511
0.0024675418850647274     0.005683540963097638     0.005608000000000001     -4.865102836242798
0.0025                    0.005665000000000001     0.005608000000000001     -1.1642046992613548
0.0024675418850647274     0.005648540963097637     0.005608                 -4.749244174627691
0.0024350837701294543     0.005667081926195274     0.005608                 -8.535544542516117
0.0024350837701294543     0.005632081926195274     0.005608                 -8.334283649994024
0.0024026256551941813     0.005650622889292911     0.005608000000000001     -12.205986248789442
0.0024026256551941813     0.005615622889292911     0.005608000000000001     -11.919323125360359
0.0023701675402589086     0.005634163852390548     0.005608                 -15.876427955062763
0.0025                    0.00563                  0.005608                 -0.9021512518827177
0.002467541885064727      0.0056135409630976366    0.005608                 -4.48719072724906
0.0024350837701294543     0.005597081926195274     0.005608                 -8.07223020261539
0.0025                    0.005595000000000001     0.005608000000000001     -0.6400978045040819
0.0024675418850647274     0.005578540963097637     0.005608                 -4.225137279870413
0.0025                    0.00556                  0.005608                 -0.3780443571254413
0.002374322596220528      0.005767297467288064     0.005608000000000001     -17.00088322385981
0.002373283832230123      0.005734014063563685     0.005608000000000001     -16.71218039112165
0.002372245068239718      0.005700730659839306     0.005608                 -16.470266881421168
0.002371206304249313      0.005667447256114927     0.005608000000000001     -16.228353371720683
0.002405741947165396      0.005750473100466048     0.005608000000000001     -12.919615020361707
0.002404703183174991      0.005717189696741669     0.005608                 -12.714422944240845
0.002403664419184586      0.00568390629301729      0.005608                 -12.472509434540363
0.002437161298110264      0.005733648733644032     0.005608                 -8.83834681686359
0.0024361225341198592     0.005700365329919653     0.005608                 -8.71666549736005
0.002468580649055132      0.005716824366822016     0.005608                 -4.757078613365491
0.0023789809581344786     0.0062687373507176024    0.005608000000000001     -6.5664223346381005
0.002346846147869894      0.006262630041668979     0.005608000000000001     -7.280590627294146
0.0023757792890222017     0.006240293569386032     0.005608000000000001     -7.314278198192835
0.0023436444787576166     0.006234186260337408     0.005608000000000001     -7.8244785675180974
0.002314711337605309      0.006256522732620355     0.005608000000000001     -8.017384633477292
0.0023115096684930315     0.006228078951288784     0.005608                 -8.998142751829413
0.0022825765273407237     0.006250415423571731     0.005608000000000001     -8.754178639660436
0.002279374858228447      0.00622197164224016      0.005608000000000001     -10.171806936140714
0.0022504417170761386     0.006244308114523107     0.005608                 -9.490972645843577
0.0022472400479638622     0.006215864333191537     0.005608000000000001     -11.025028900063262
0.0023725776199099245     0.00621184978805446      0.005608000000000001     -8.14677525630554
0.00234044280964534       0.006205742479005837     0.005608                 -8.74862579967423
0.002308307999380755      0.0061996351699572134    0.005608                 -9.922289983985536
0.00227617318911617       0.00619352786090859      0.005608000000000001     -11.120518757651578
0.0023693759507976476     0.00618340600672289      0.005608000000000001     -8.979272314418242
0.002337241140533063      0.006177298697674265     0.005608                 -9.67277303183035
0.002305106330268478      0.0061711913886256416    0.005608000000000001     -11.216008615239897
0.0023661742816853707     0.006154962225391319     0.005608                 -9.811769372530948
0.002334039471420786      0.006148854916342696     0.005608000000000001     -11.3114984728282
0.002362972612573094      0.006126518444059748     0.005608000000000001     -10.958887900631291
0.002334266111106032      0.006110725180974177     0.005608000000000001     -13.650870031614229
0.002305332969953724      0.006133061653257122     0.005608000000000001     -13.60514208938309
0.0022763998288014156     0.00615539812554007      0.005608                 -13.164645422051281
0.002247466687649108      0.006177734597823017     0.005608000000000001     -12.724148754719474
0.00230555960963897       0.006094931917888603     0.005608000000000001     -15.669289282202929
0.0022766264684866617     0.00611726839017155      0.005608                 -15.184207497096212
0.002247693327334354      0.0061396048624544975    0.005608                 -14.743710829764414
0.002276853108171908      0.006079138654803031     0.005608000000000001     -17.68770853279161
0.0022479199670196        0.0061014751270859775    0.005608                 -16.763272904809384
0.002248146606704846      0.006063345391717458     0.005608                 -19.70612778338027
0.002500000000000001      0.006225000000000002     0.005608000000000003     -0.2693227814459964
0.002500000000000001      0.006260000000000002     0.005608000000000003     -1.5022078357579658E-14
0.002475796191626897      0.006233747470143523     0.005608000000000003     -1.6933042129628317
0.0024757961916268964     0.006268747470143522     0.005608000000000002     -1.2928547246333615