% Model:              stripline_filter_simple_decomp_new_mesh.mph
% Version:            COMSOL 6.1.0.252
% Date:               May 19 2023, 20:23
% Dimension:          3
% Nodes:              2746
% Expressions:        1
% Description:        Surface
% X                       Y                        Z                        Power outflow, time average
0.002032684822881224      0.0057839522424041724    0.005608000000000001     305500.3225417568
0.0020390419771398175     0.005819658115363282     0.005608000000000001     264753.68431473756
0.002000404191863602      0.005804921951435363     0.005608000000000001     244830.66299175512
0.0020067613461221957     0.005840627824394473     0.005608000000000001     213139.07192710118
0.0020453991313984106     0.005855363988322392     0.005608000000000001     229678.71090214705
0.0020131185003807893     0.005876333697353583     0.005608                 181538.34217604704
0.002051756285657004      0.0058910698612815015    0.005608000000000001     197263.5227171956
0.0020194756546393824     0.005912039570312692     0.005608000000000001     152681.86266701284
0.0020581134399155973     0.005926775734240612     0.005608                 167926.61620634736
0.002025832808897976      0.005947745443271803     0.005608000000000001     124153.70678688848
0.002064470594174191      0.0059624816071997214    0.005608000000000001     138274.8669385008
0.0019681235608459803     0.005825891660466554     0.005608000000000001     190234.23264287424
0.001974480715104574      0.0058615975334256635    0.005608                 160355.2071777244
0.0019808378693631674     0.005897303406384774     0.005608                 132839.2741485778
0.0019871950236217606     0.005933009279343883     0.005608000000000001     105730.64715222162
0.0019358429298283587     0.005846861369497745     0.005608000000000001     137568.38301873935
0.001942200084086952      0.005882567242456855     0.005608                 109841.98145282362
0.0019485572383455456     0.005918273115415965     0.005608000000000001     84768.82614029259
0.0019035622988107371     0.0058678310785289355    0.005608                 87199.10499520559
0.0019099194530693307     0.0059035369514880455    0.005608000000000001     61946.2133937892
0.0018712816677931153     0.005888800787560126     0.005608000000000001     38266.8567456254
0.0020890596503191365     0.006111698719442691     0.005608000000000001     27419.995270094783
0.002060039161657155      0.006107800020383233     0.005608000000000001     19636.866252674692
0.0020841418390901475     0.0060818552969940974    0.005608000000000001     38708.727026421635
0.0020551213504281657     0.006077956597934639     0.005608000000000001     30498.372582241296
0.0020310186729951734     0.006103901321323775     0.005608000000000001     13789.115137734098
0.002026100861766184      0.006074057898875181     0.005608                 21941.60571672339
0.0020019981843331916     0.0061000026222643175    0.005608000000000001     7656.233483129901
0.0019970803731042025     0.006070159199815723     0.005608000000000001     12850.95474629035
0.00197297769567121       0.006096103923204859     0.005608                 1264.8553263881386
0.001968059884442221      0.006066260500756266     0.005608000000000001     4812.267495880167
0.0019439572070092284     0.006092205224145402     0.005608000000000001     -4777.35789613036
0.0020792240278611584     0.006052011874545503     0.005608000000000001     55628.709572678825
0.0020502035391991766     0.006048113175486045     0.005608                 45407.88013435276
0.0020211830505371953     0.006044214476426587     0.005608                 34985.45863664265
0.0019921625618752135     0.00604031577736713      0.005608000000000001     24087.773075995767
0.0020743062166321694     0.006022168452096909     0.005608000000000001     76892.4974375419
0.0020452857279701876     0.006018269753037451     0.005608                 64750.97881534639
0.002016265239308206      0.006014371053977993     0.005608000000000001     51909.07999240632
0.00206938840540318       0.005992325029648316     0.005608                 102454.47537929854
0.0020403679167411985     0.005988426330588858     0.005608000000000001     88577.49775304111
0.002001730131464983      0.005973690166660938     0.005608000000000001     73984.33798632902
0.001977627454031991      0.005999634890050074     0.005608                 37031.40004548748
0.001953524776598998      0.00602557961343921      0.005608000000000001     10025.615703153628
0.001929422099166006      0.006051524336828346     0.005608000000000001     -8036.649061032365
0.0019630923461887682     0.005958954002733019     0.005608                 57109.875124216385
0.0019389896687557757     0.005984898726122155     0.005608                 21203.71572373053
0.0019148869913227832     0.006010843449511291     0.005608000000000001     -5225.50051853876
0.0019244545609125529     0.0059442178388051       0.005608                 38827.44216032815
0.0019003518834795606     0.005970162562194237     0.005608000000000001     4075.536189195236
0.0018858167756363382     0.005929481674877181     0.005608000000000001     18897.98846977513
0.002332020083763976      0.005449970973871018     0.005608000000000001     174435.41889133412
0.0023059745543348763     0.005440397716455321     0.005608000000000001     167974.02553735973
0.002331257142903843      0.005412779348435579     0.005608000000000001     174156.83807205275
0.0023052116134747425     0.0054032060910198815    0.005608000000000001     164477.81042144017
0.0022799290249057758     0.005430824459039623     0.005608000000000001     162673.77725670053
0.0022791660840456424     0.005393632833604184     0.005608                 157390.25064762495
0.002253883495476676      0.005421251201623924     0.005608000000000001     157732.425273698
0.0022531205546165423     0.005384059576188485     0.005608000000000001     151577.70928297643
0.002227837966047576      0.005411677944208227     0.005608                 153086.8428764744
0.0022270750251874426     0.005374486318772789     0.005608000000000001     148264.0442045647
0.002201792436618476      0.0054021046867925296    0.005608000000000001     145481.28373287895
0.0023304942020437092     0.00537558772300014      0.005608000000000001     175066.86748402013
0.002304448672614609      0.005366014465584442     0.005608                 164027.5616701648
0.0022784031431855095     0.005356441208168744     0.005608                 157440.90098853834
0.0022523576137564094     0.005346867950753047     0.005608000000000001     155861.58446081626
0.002329731261183576      0.005338396097564702     0.005608000000000001     176814.98691699983
0.002303685731754476      0.005328822840149004     0.005608                 165369.6050324256
0.0022776402023253757     0.005319249582733306     0.005608000000000001     166080.84650594863
0.0023289683203234425     0.005301204472129262     0.005608                 179633.78536846692
0.002302922790894343      0.005291631214713565     0.005608000000000001     178220.5616747489
0.002328205379463309      0.005264012846693824     0.005608000000000001     185484.44016275965
0.002200079966107845      0.0054293910841331896    0.005608000000000001     149575.89755815378
0.002226125495536945      0.0054389643415488865    0.005608000000000001     157331.35901256735
0.002252171024966045      0.005448537598964584     0.005608                 160693.9956052393
0.002278216554395145      0.005458110856380281     0.005608000000000001     163430.13907206865
0.0023042620838242454     0.00546768411379598      0.005608000000000001     164925.71386060514
0.002198367495597214      0.005456677481473848     0.005608000000000001     155210.84079701157
0.002224413025026314      0.005466250738889546     0.005608                 161095.92486234318
0.002250458554455414      0.005475823996305243     0.005608                 163423.32686445862
0.0022765040838845143     0.005485397253720941     0.005608000000000001     164724.08466253444
0.0021966550250865835     0.005483963878814507     0.005608000000000001     165769.46155480633
0.0022227005545156836     0.005493537136230204     0.005608                 169208.15226559725
0.0022487460839447837     0.005503110393645903     0.005608000000000001     170624.32170986512
0.0021949425545759525     0.005511250276155166     0.005608                 181361.31239690125
0.0022209880840050526     0.005520823533570864     0.005608000000000001     182301.26170669467
0.0021932300840653216     0.005538536673495825     0.005608000000000001     203371.71555758305
0.002191942981519332      0.005571009887625482     0.005608000000000001     223116.05064167344
0.0021627970558418027     0.00555244885479486      0.005608000000000001     213990.4566539937
0.002161509953295813      0.0055849220689245145    0.005608000000000001     237109.0030847887
0.0021906558789733426     0.005603483101755137     0.005608000000000001     239267.86381718426
0.0021602228507498237     0.005617395283054171     0.005608                 259449.91953575314
0.002189368776427353      0.005635956315884792     0.005608000000000001     259391.4235776078
0.0021589357482038342     0.005649868497183826     0.005608000000000001     285476.4893939666
0.0021880816738813636     0.005668429530014448     0.005608                 283559.50630499463
0.0021576486456578448     0.0056823417113134825    0.005608000000000001     313331.4867572654
0.002186794571335374      0.005700902744144104     0.005608000000000001     308623.9670192765
0.002132364027618284      0.005566361036093894     0.005608000000000001     229512.7646692648
0.002131076925072294      0.005598834250223549     0.005608                 254828.07977519196
0.002129789822526305      0.0056313074643532055    0.005608                 280724.03843197797
0.0021285027199803154     0.00566378067848286      0.005608000000000001     310351.154586299
0.0021019309993947645     0.0055802732173929285    0.005608000000000001     245072.07283585108
0.002100643896848775      0.005612746431522583     0.005608                 271089.5295264322
0.0020993567943027856     0.00564521964565224      0.005608000000000001     302436.66725154227
0.0020714979711712457     0.005594185398691962     0.005608                 259461.81252671202
0.002070210868625256      0.005626658612821619     0.005608000000000001     289525.66954168514
0.002041064942947727      0.0056080975799909965    0.005608000000000001     274421.2462995092
0.0021559726216445444     0.005717512643796118     0.005608000000000001     321722.3915283462
0.002126826695967015      0.005698951610965496     0.005608000000000001     319003.88889778464
0.002125150671953714      0.0057341225434481315    0.005608000000000001     328351.96550377994
0.0020960047462761848     0.005715561510617509     0.005608                 321563.79369417555
0.002094328722262884      0.005750732443100145     0.005608000000000001     328744.0796916215
0.0020651827965853546     0.005732171410269523     0.005608000000000001     318237.1696004764
0.002063506772572054      0.005767342342752158     0.005608                 321938.2980885651
0.002034360846894525      0.005748781309921538     0.005608000000000001     309456.6981189027
0.002097680770289485      0.005680390578134874     0.005608                 312443.70073541906
0.002066858820598655      0.005697000477786888     0.005608                 309128.07152282045
0.002036036870907825      0.005713610377438902     0.005608000000000001     301039.89789189
0.0020685348446119554     0.0056618295453042524    0.005608                 301135.68425076455
0.0020377128949211256     0.005678439444956267     0.005608000000000001     292763.6379139742
0.0020393889189344264     0.005643268512473632     0.005608000000000001     284820.7771936627
0.0022221259523169845     0.005554370301894298     0.005608000000000001     203804.25627540867
0.0022498839522567156     0.005536657161969336     0.005608000000000001     179979.16221736203
0.002277641952196446      0.005518944022044375     0.005608                 168119.07703301884
0.002305399952136177      0.005501230882119412     0.005608000000000001     162553.7874393714
0.0023331579520759083     0.005483517742194452     0.005608000000000001     169482.42075401038
0.0022510218205686475     0.005570203930292769     0.005608000000000001     195626.33151093457
0.002278779820508378      0.005552490790367808     0.005608                 174298.74799588366
0.002306537820448109      0.0055347776504428466    0.005608                 163046.564583619
0.00233429582038784       0.005517064510517885     0.005608000000000001     162336.43948461258
0.00227991768882031       0.005586037558691241     0.005608000000000001     184231.8897998418
0.0023076756887600407     0.00556832441876628      0.005608                 166081.1405300366
0.002335433688699772      0.0055506112788413185    0.005608000000000001     156715.64352653947
0.002308813557071973      0.005601871187089713     0.005608                 170079.1118683824
0.002336571557011704      0.005584158047164752     0.005608000000000001     153129.32998056672
0.002337709425323636      0.005617704815488185     0.005608000000000001     150456.17376383336
0.002220838849770995      0.005586843516023953     0.005608000000000001     218626.52124861052
0.0022497347180226576     0.005602677144422425     0.005608                 206217.54665731156
0.0022786305862743206     0.005618510772820897     0.005608000000000001     190325.09907871322
0.0023075264545259835     0.00563434440121937      0.005608000000000001     171271.4994334006
0.0022195517472250056     0.005619316730153609     0.005608                 231485.71626922122
0.0022484476154766685     0.005635150358552081     0.005608                 217665.3501237839
0.002277343483728331      0.005650983986950553     0.005608000000000001     199642.88659837688
0.002218264644679016      0.0056517899442832635    0.005608                 248609.09008870748
0.002247160512930679      0.005667623572681736     0.005608000000000001     232057.19272526968
0.0022169775421330266     0.005684263158412921     0.005608000000000001     266906.50774773187
0.002365616067011181      0.005464976779096815     0.005608000000000001     168994.33436795633
0.002366753935323113      0.005498523547420248     0.005608000000000001     160630.85456252517
0.0023992120502583855     0.005479982584322611     0.005608000000000001     160327.84378448882
0.0024003499185703174     0.005513529352646044     0.005608                 146156.69084362156
0.0024328080335055905     0.0054949883895484075    0.005608000000000001     152450.67430347498
0.0024339459018175224     0.005528535157871841     0.005608000000000001     132609.23541015206
0.002466404016752795      0.0055099941947742035    0.005608                 145913.3975883949
0.0024675418850647274     0.005543540963097638     0.005608000000000001     122030.77327667813
0.0025                    0.005525                 0.005608000000000001     140631.16928277342
0.0023678918036350444     0.005532070315743681     0.005608                 148161.30241869338
0.0024014877868822494     0.005547076120969477     0.005608                 130740.31975661709
0.0024350837701294543     0.005562081926195275     0.005608000000000001     115124.59109383807
0.0023690296719469763     0.0055656170840671145    0.005608                 136677.75025021282
0.0024026256551941813     0.0055806228892929105    0.005608000000000001     116685.54502185012
0.002370167540258909      0.005599163852390549     0.005608000000000001     126855.76243432227
0.002115135741302866      0.00609886940128053      0.005608000000000001     40880.19818716722
0.00211490910161762       0.0061369991366490495    0.005608000000000001     22833.20333169587
0.0021409851926013496     0.006124169818486888     0.005608000000000001     31949.639851372944
0.0021412118322865956     0.006086040083118369     0.005608000000000001     53133.47278709768
0.0021670612835850787     0.006111340500324727     0.005608                 41512.622459636375
0.002167287923270325      0.006073210764956208     0.005608000000000001     66130.53564929447
0.0021931373745688086     0.0060985111821625654    0.005608000000000001     52237.04139777359
0.0021933640142540547     0.006060381446794047     0.005608                 79805.98771882996
0.002219213465552538      0.006085681864000406     0.005608000000000001     64604.359431314435
0.0022194401052377842     0.006047552128631886     0.005608000000000001     94740.20875460959
0.0021407585529161035     0.006162299553855407     0.005608000000000001     15858.608900647141
0.002166834643899833      0.006149470235693247     0.005608                 23188.111475136844
0.0021929107348835626     0.006136640917531086     0.005608                 31911.758873341525
0.002218986825867292      0.006123811599368924     0.005608000000000001     42271.88234316555
0.002166608004214587      0.006187599971061766     0.005608000000000001     9392.113972755553
0.0021926840951983165     0.0061747706528996055    0.005608                 15612.617763509998
0.002218760186182046      0.006161941334737445     0.005608000000000001     23343.669221946042
0.0021924574555130705     0.006212900388268125     0.005608                 3455.8529692268257
0.0022185335464968        0.006200071070105964     0.005608000000000001     7942.257562666641
0.002218306906811554      0.006238200805474483     0.005608000000000001     -2690.610297050071
0.002110217930073877      0.006069025978831936     0.005608000000000001     55294.32099706303
0.0021053001188448875     0.006039182556383342     0.005608                 74990.40615122006
0.0021003823076158985     0.006009339133934748     0.005608000000000001     98890.12169059904
0.00209546449638691       0.005979495711486155     0.005608000000000001     131908.18501418276
0.0021362940210576066     0.006056196660669775     0.005608                 72024.908314648
0.002131376209828617      0.006026353238221181     0.005608                 94375.40599324813
0.0021264583985996285     0.005996509815772587     0.005608000000000001     124302.38376660351
0.0021623701120413357     0.006043367342507613     0.005608                 89096.32007541179
0.002157452300812347      0.00601352392005902      0.005608000000000001     115767.12216899158
0.0021884462030250657     0.006030538024345454     0.005608000000000001     106543.14899947005
0.0021880253744434213     0.00573467204445945      0.005608000000000001     296422.7462535673
0.0021572034247525915     0.005751281944111462     0.005608000000000001     308152.639835984
0.0021892561775514684     0.005768441344774793     0.005608000000000001     283193.6537803977
0.0021584342278606382     0.005785051244426807     0.005608                 295066.4317552651
0.0021904869806595156     0.005802210645090138     0.005608000000000001     272101.96933358914
0.0021596650309686854     0.005818820544742151     0.005608000000000001     283344.36659816495
0.0021917177837675627     0.005835979945405483     0.005608                 263087.9791835749
0.002160895834076733      0.005852589845057497     0.005608000000000001     272427.71745306446
0.00219294858687561       0.005869749245720828     0.005608000000000001     252304.81346028773
0.002126381475061761      0.005767891843763476     0.005608                 313157.3161456596
0.0021276122781698084     0.0058016611440788205    0.005608                 300030.4097281602
0.0021288430812778556     0.0058354304443941655    0.005608000000000001     287016.55676525657
0.002095559525370931      0.00578450174341549      0.005608                 311041.739514141
0.0020967903284789782     0.005818271043730835     0.005608000000000001     296453.60522865754
0.0020647375756801013     0.005801111643067503     0.005608000000000001     300192.8066533057
0.0020901661927144747     0.005943935134903943     0.005608000000000001     172346.07980532164
0.0021211600949271932     0.005960949239190375     0.005608000000000001     160909.26685731683
0.0021158617912547585     0.005925388662608164     0.005608000000000001     197648.17153507532
0.002146855693467477      0.005942402766894597     0.005608                 181046.06991114287
0.0021415573897950423     0.0059068421903123855    0.005608000000000001     219212.9831707897
0.002172551292007761      0.005923856294598818     0.005608000000000001     197427.0626968383
0.002167252988335326      0.005888295718016606     0.005608                 237151.68543633434
0.002198246890548045      0.00590530982230304      0.005608000000000001     209392.5224274463
0.002152153997139912      0.005977963343476809     0.005608                 147183.78322697716
0.002177849595680196      0.0059594168711810305    0.005608                 162900.28091341673
0.0022035451942204794     0.005940870398885251     0.005608000000000001     174616.0318017708
0.0021831478993526304     0.005994977447763241     0.005608                 132682.8882238152
0.0022088434978929147     0.0059764309754674625    0.005608000000000001     144248.97577862832
0.0022141418015653495     0.006011991552049675     0.005608000000000001     118076.13657946391
0.0020838090384558815     0.005908229261944833     0.005608000000000001     198454.0739924985
0.002077451884197288      0.005872523388985723     0.005608                 229173.01893960772
0.0020710947299386944     0.005836817516026613     0.005608000000000001     263005.85994142614
0.002109504636996165      0.005889682789649054     0.005608                 226342.84411045903
0.002103147482737572      0.005853976916689945     0.005608                 259263.6682605312
0.002135200235536449      0.005871136317353275     0.005608                 250802.05198698567
0.002338748189314041      0.005650988219212565     0.005608000000000001     138601.5985059494
0.0023085652185163884     0.005667627804943748     0.005608000000000001     164760.0905314323
0.0023397869533044457     0.005684271622936943     0.005608000000000001     128711.67297344215
0.0023096039825067933     0.0057009112086681265    0.005608                 161394.34597387738
0.00234082571729485       0.005717555026661322     0.005608000000000001     122450.66605298594
0.0023106427464971977     0.005734194612392505     0.005608000000000001     161073.20097236973
0.002341864481285255      0.0057508384303857005    0.005608                 119974.04825125921
0.002311681510487603      0.005767478016116885     0.005608000000000001     161458.83144260652
0.00234290324527566       0.005784121834110079     0.005608000000000001     118859.90732805537
0.002278382247718736      0.005684267390674931     0.005608                 196764.56038564804
0.002279421011709141      0.00571755079439931      0.005608                 197253.9965114409
0.0022804597756995457     0.005750834198123689     0.005608000000000001     199822.64504678105
0.0022481992769210835     0.005700906976406114     0.005608                 231855.4877556665
0.0022492380409114884     0.005734190380130494     0.005608000000000001     237212.79823440593
0.0022180163061234315     0.0057175465621373       0.005608000000000001     272414.0648924318
0.00222293951855562       0.005852623763398679     0.005608000000000001     234767.91559543958
0.002221708715447573      0.005818854463083334     0.005608000000000001     243245.04165018158
0.0022204779123395253     0.005785085162767989     0.005608                 251407.98007297405
0.0022192471092314786     0.005751315862452644     0.005608000000000001     262462.3975552253
0.0022529304502356302     0.005835498281076528     0.005608000000000001     209452.20054756053
0.0022516996471275827     0.005801728980761183     0.005608                 217549.26176542515
0.002250468844019536      0.005767959680445839     0.005608                 226427.7236016608
0.00228292138191564       0.005818372798754379     0.005608000000000001     180584.40566537497
0.0022816905788075924     0.005784603498439034     0.005608                 188933.29124385872
0.00231291231359565       0.005801247316432229     0.005608                 149808.45029328414
0.0025                    0.0057                   0.005608                 20386.15725337063
0.0024675418850647274     0.005683540963097638     0.005608000000000001     33266.65753746622
0.0025                    0.005665000000000001     0.005608000000000001     41655.59155816776
0.0024675418850647274     0.005648540963097637     0.005608                 53914.42538730548
0.0024350837701294543     0.005667081926195274     0.005608                 53603.34704708542
0.0024350837701294543     0.005632081926195274     0.005608                 72870.54674490727
0.0024026256551941813     0.005650622889292911     0.005608000000000001     80698.46013477576
0.0024026256551941813     0.005615622889292911     0.005608000000000001     97535.49693238543
0.0023701675402589086     0.005634163852390548     0.005608                 113443.70355128004
0.0025                    0.00563                  0.005608                 63800.19338636242
0.002467541885064727      0.0056135409630976366    0.005608                 75628.75576546692
0.0024350837701294543     0.005597081926195274     0.005608                 93677.15952235393
0.0025                    0.005595000000000001     0.005608000000000001     87879.50668500297
0.0024675418850647274     0.005578540963097637     0.005608                 98971.78794251886
0.0025                    0.00556                  0.005608                 113273.04884140007
0.002374322596220528      0.005767297467288064     0.005608000000000001     76983.33060244647
0.002373283832230123      0.005734014063563685     0.005608000000000001     80870.44007163437
0.002372245068239718      0.005700730659839306     0.005608                 88437.21233173818
0.002371206304249313      0.005667447256114927     0.005608000000000001     100275.43587549636
0.002405741947165396      0.005750473100466048     0.005608000000000001     47431.2301304927
0.002404703183174991      0.005717189696741669     0.005608                 54731.51997934208
0.002403664419184586      0.00568390629301729      0.005608                 66016.85590169887
0.002437161298110264      0.005733648733644032     0.005608                 27295.62790755139
0.0024361225341198592     0.005700365329919653     0.005608                 38101.97342822084
0.002468580649055132      0.005716824366822016     0.005608                 17644.580374821417
0.0023789809581344786     0.0062687373507176024    0.005608000000000001     6226.627299680701
0.002346846147869894      0.006262630041668979     0.005608000000000001     3483.315199016272
0.0023757792890222017     0.006240293569386032     0.005608000000000001     12906.82982701529
0.0023436444787576166     0.006234186260337408     0.005608000000000001     10788.749807917184
0.002314711337605309      0.006256522732620355     0.005608000000000001     671.065835861571
0.0023115096684930315     0.006228078951288784     0.005608                 8955.279536114122
0.0022825765273407237     0.006250415423571731     0.005608000000000001     -1311.5238348940256
0.002279374858228447      0.00622197164224016      0.005608000000000001     7932.740156735834
0.0022504417170761386     0.006244308114523107     0.005608                 -2132.3224013161716
0.0022472400479638622     0.006215864333191537     0.005608000000000001     6010.066966485781
0.0023725776199099245     0.00621184978805446      0.005608000000000001     19962.676448739974
0.00234044280964534       0.006205742479005837     0.005608                 18085.564156671946
0.002308307999380755      0.0061996351699572134    0.005608                 17194.05129405021
0.00227617318911617       0.00619352786090859      0.005608000000000001     15887.74096038152
0.0023693759507976476     0.00618340600672289      0.005608000000000001     27504.126217195622
0.002337241140533063      0.006177298697674265     0.005608                 26019.748742676442
0.002305106330268478      0.0061711913886256416    0.005608000000000001     25552.157787457352
0.0023661742816853707     0.006154962225391319     0.005608                 35419.329177438194
0.002334039471420786      0.006148854916342696     0.005608000000000001     35001.612943905035
0.002362972612573094      0.006126518444059748     0.005608000000000001     45147.95835108155
0.002334266111106032      0.006110725180974177     0.005608000000000001     51341.880970624654
0.002305332969953724      0.006133061653257122     0.005608000000000001     40190.21280172494
0.0022763998288014156     0.00615539812554007      0.005608                 29103.77385057511
0.002247466687649108      0.006177734597823017     0.005608000000000001     17930.579144130035
0.00230555960963897       0.006094931917888603     0.005608000000000001     58157.411789715334
0.0022766264684866617     0.00611726839017155      0.005608                 46528.88216065005
0.002247693327334354      0.0061396048624544975    0.005608                 34930.476954047124
0.002276853108171908      0.006079138654803031     0.005608000000000001     67417.54401168026
0.0022479199670196        0.0061014751270859775    0.005608                 54763.05299910542
0.002248146606704846      0.006063345391717458     0.005608                 79365.34944479371
0.002500000000000001      0.006225000000000002     0.005608000000000003     27083.024848917994
0.002500000000000001      0.006260000000000002     0.005608000000000003     18579.902082926244
0.002475796191626897      0.006233747470143523     0.005608000000000003     23769.085762928742
0.0024757961916268964     0.006268747470143522     0.005608000000000002     15692.580777547537
0.0025000000000000005     0.006295000000000002     0.005608000000000002     11300.007275320735
0.002475796191626896      0.0063037474701435215    0.005608000000000002     8870.608536037347
0.0025000000000000005     0.0063300000000000006    0.005608000000000002     5573.0859297514235