% Model:              stripline_filter_simple_decomp_new_mesh.mph
% Version:            COMSOL 6.1.0.252
% Date:               May 4 2023, 12:49
% Dimension:          3
% Nodes:              953
% Expressions:        1
% Description:        Surface
% X                       Y                        Z                        imag(emw.Ex)
0.0019354009108757384     0.0012544340293143602    0.010508                 -14.805556206634298
0.001960632284923057      0.0012182566885032373    0.010508                 -52.949962624829936
0.0020059757970162712     0.0012767964423167318    0.010508                 -23.13834088964134
0.0020312071710635897     0.001240619101505609     0.010508                 -27.599225364955856
0.0019858636589703753     0.0011820793476921144    0.010508                 -63.1325115528295
0.0020564385451109076     0.001204441760694486     0.010508000000000002     -31.269772600535006
0.0020110950330176937     0.0011459020068809915    0.010508                 -68.71021598893435
0.0020816699191582265     0.0011682644198833631    0.010508                 -31.439459265487855
0.002036326407065012      0.0011097246660698686    0.010508                 -69.68307593314535
0.002106901293205545      0.0011320870790722402    0.010508                 -28.108285359814403
0.0020615577811123305     0.0010735473252587457    0.010508                 -66.05109138546197
0.002132132667252863      0.0010959097382611173    0.010508000000000002     -21.276250883514948
0.002086789155159649      0.0010373699844476228    0.010508                 -57.81426234588429
0.0021573640413001817     0.0010597323974499947    0.010508                 -10.943355836589319
0.0021120205292069674     0.0010011926436365       0.010508                 -44.972588814412575
0.0021825954153475        0.0010235550566388718    0.010508                 4.190390546080341
0.0021372519032542858     9.650153028253771E-4     0.010508                 -16.052481741352626
0.002076550683156804      0.0012991588553191034    0.010508                 -4.724341605897962
0.002101782057204122      0.0012629815145079808    0.010508                 -8.183930661238037
0.002127013431251441      0.0012268041736968579    0.010508                 -8.972148578388385
0.0021522448052987593     0.0011906268328857347    0.010508                 -6.259505924912787
0.0021774761793460777     0.001154449492074612     0.010508                 -0.046002700810845454
0.0022027075533933957     0.0011182721512634892    0.010508                 9.668361093917383
0.0022279389274407146     0.0010820948104523663    0.010508                 20.16047384537244
0.0021471255692973364     0.0013215212683214753    0.010508                 8.699552254272362
0.002172356943344655      0.0012853439275103524    0.010508                 6.330398733701713
0.0021975883173919733     0.0012491665866992295    0.010508                 8.424510134979869
0.0022228196914392917     0.0012129892458881066    0.010508                 14.019482106884197
0.00224805106548661       0.0011768119050769837    0.010508                 23.115314649414813
0.0022732824395339285     0.0011406345642658608    0.010508                 29.424217796677766
0.0022177004554378692     0.0013438836813238469    0.010508                 17.13334069086943
0.0022429318294851877     0.001307706340512724     0.010508                 15.943762819863878
0.002268163203532506      0.001271528999701601     0.010508                 20.920203539570366
0.0022933945775798245     0.0012353516588904782    0.010508                 29.397504829903255
0.002318625951627143      0.0011991743180793553    0.010508                 31.981622399995924
0.002288275341578402      0.0013662460943262185    0.010508                 20.57702370389302
0.0023135067156257205     0.0013300687535150956    0.010508                 20.65616159724732
0.002338738089673039      0.0012938914127039727    0.010508                 28.51493163538271
0.0023639694637203573     0.0012577140718928498    0.010508                 27.83268765532725
0.0023588502277189344     0.00138860850732859      0.010508                 19.030601293343636
0.002384081601766253      0.0013524311665174672    0.010508                 20.467595065852947
0.0024093129758135713     0.0013162538257063443    0.010508                 16.977413562671405
0.0024294251138594677     0.0014109709203309617    0.010508                 12.4940734592208
0.002454656487906786      0.0013747935795198388    0.010508                 -0.5841998779714395
0.0025                    0.0014333333333333333    0.010508                 11.223375202446027
0.001901236236607809      0.0012086840128934593    0.010508                 25.25934037820167
0.0019264676106551274     0.0011725066720823364    0.010508                 -16.521330214276304
0.0018670715623398796     0.0011629339964725584    0.010508                 48.99102472176685
0.0018923029363871978     0.0011267566556614355    0.010508000000000002     10.99118714619999
0.0018329068880719498     0.0011171839800516578    0.010508                 62.006831998570874
0.0018581382621192684     0.0010810066392405347    0.010508                 28.553112209220217
0.0017987422138040204     0.001071433963630757     0.010508                 64.30676220861505
0.001823973587851339      0.0010352566228196338    0.010508                 36.16444497478369
0.001764577539536091      0.001025683947209856     0.010508                 55.89081535189791
0.0017898089135834092     9.895066063987331E-4     0.010508000000000002     33.825185442891325
0.0017304128652681616     9.799339307889551E-4     0.010508                 36.758991428420245
0.0017556442393154798     9.437565899778322E-4     0.010508                 21.53533361354266
0.001696248191000232      9.341839143680543E-4     0.010508                 6.9112904381825615
0.0017214795650475504     8.980065735569314E-4     0.010508                 1.2832403151140284
0.0016620835167323025     8.884338979471534E-4     0.010508                 5.24914441048259
0.0019516989847024459     0.0011363293312712135    0.010508                 -30.65811884953223
0.0019175343104345165     0.0010905793148503126    0.010508                 -3.47016882231992
0.0018833696361665866     0.0010448292984294118    0.010508                 13.767188907435411
0.0018492049618986572     9.99079282008511E-4      0.010508                 21.0539543397349
0.0018150402876307278     9.533292655876102E-4     0.010508                 18.390127474578094
0.0017808756133627984     9.075792491667093E-4     0.010508                 6.9374144586459465
0.0019769303587497643     0.0011001519904600906    0.010508                 -39.08607907162468
0.0019427656844818349     0.0010544019740391897    0.010508                 -12.222696377677948
0.0019086010102139052     0.001008651957618289     0.010508                 4.690094018813397
0.0018744363359459758     9.629019411973882E-4     0.010508                 11.652292117848674
0.0018402716616780462     9.171519247764873E-4     0.010508                 9.105569359704816
0.0020021617327970827     0.0010639746496489677    0.010508                 -41.80521088055593
0.001967997058529153      0.001018224633228067     0.010508                 -15.266395519872958
0.0019338323842612237     9.724746168071662E-4     0.010508                 1.3218275433541748
0.001899667709993294      9.267246003862653E-4     0.010508                 7.787705018290637
0.002027393106844401      0.0010277973088378448    0.010508                 -38.81551427632394
0.0019932284325764717     9.820472924169442E-4     0.010508                 -12.60126624890529
0.001959063758308542      9.362972759960432E-4     0.010508                 2.983821434403694
0.0020526244808917195     9.916199680267222E-4     0.010508                 -30.116989258929948
0.00201845980662379       9.458699516058212E-4     0.010508                 -5.306081391956468
0.002077855854939038      9.554426272155992E-4     0.010508                 -17.082003460789593
0.0024999999999999996     9.666666666666667E-4     0.010507999999999997     22.004935769601836
0.0024999999999999996     0.0010249999999999999    0.010507999999999998     11.327676435409915
0.0024546564879067857     9.664602461865055E-4     0.010507999999999998     17.743295012412204
0.0024546564879067857     0.0010247935795198388    0.010507999999999998     10.567956155459
0.0024999999999999996     0.0010833333333333333    0.010507999999999997     1.41206584824874
0.0024546564879067857     0.0010831269128531722    0.010507999999999998     4.1447644317095405
0.0024999999999999996     0.0011416666666666667    0.010507999999999997     -7.741895991884752
0.0024546564879067857     0.0011414602461865054    0.010507999999999998     -1.5167785450122353
0.0024999999999999996     0.0012000000000000001    0.010507999999999998     -16.134209084990562
0.0024546564879067857     0.0011997935795198388    0.010507999999999998     -6.416672774706669
0.0025                    0.0012583333333333333    0.010508                 -23.764873431068683
0.002454656487906786      0.0012581269128531722    0.010508                 -10.554918257372966
0.0024999999999999996     0.0013166666666666667    0.010507999999999998     -30.63388903011958
0.0024546564879067857     0.0013164602461865054    0.010507999999999998     -13.93151499301203
0.0025                    0.001375                 0.010508                 -36.74125588214217
0.0024093129758135713     9.662538257063443E-4     0.010507999999999997     13.460897197650652
0.0024093129758135713     0.0010245871590396777    0.010507999999999997     9.783509534338878
0.0024093129758135713     0.0010829204923730109    0.010508                 6.852736674000964
0.0024093129758135713     0.0011412538257063443    0.010508                 4.6836125606905625
0.0024093129758135713     0.0011995871590396777    0.010508                 3.276137194408184
0.0024093129758135713     0.001257920492373011     0.010508                 2.630310575153036
0.002363969463720357      9.660474052261832E-4     0.010507999999999997     9.157742325317068
0.002363969463720357      0.0010243807385595164    0.010507999999999998     8.974336572049378
0.002363969463720357      0.0010827140718928498    0.010507999999999998     9.53598257512312
0.002363969463720357      0.0011410474052261832    0.010507999999999998     10.859277325224548
0.0023639694637203573     0.0011993807385595164    0.010508                 12.944220822353659
0.002318625951627143      9.658409847460218E-4     0.010507999999999998     4.833830395411534
0.002318625951627143      0.0010241743180793553    0.010507999999999998     8.14043726859067
0.002318625951627143      0.0010825076514126887    0.010508                 12.1945021350759
0.002318625951627143      0.0011408409847460219    0.010508                 17.010215748588926
0.0022732824395339285     9.656345642658606E-4     0.010508                 0.48916140793405927
0.0022732824395339285     0.001023967897599194     0.010508                 7.281811623962352
0.0022732824395339285     0.0010823012309325274    0.010508                 14.828295353859415
0.002227938927440714      9.654281437856994E-4     0.010507999999999998     -3.8762646371153204
0.002227938927440714      0.0010237614771190329    0.010507999999999998     6.398459638165001
0.0021825954153475        9.652217233055383E-4     0.010508                 -8.26244773973674
0.0019434757970162712     0.001335129775650065     0.010508                 -2.7642329789655378
0.002014050683156804      0.0013574921886524366    0.010508                 -11.642972301598547
0.0020846255692973364     0.0013798546016548082    0.010508000000000002     -0.8364902246810288
0.002155200455437869      0.0014022170146571799    0.010508                 4.890746313868135
0.002225775341578402      0.0014245794276595515    0.010508                 5.538737314048376
0.002296350227718935      0.0014469418406619235    0.010508000000000002     1.107482775860376
0.0023669251138594676     0.0014693042536642951    0.010508                 -8.403017300696026
0.0024375000000000004     0.0014916666666666667    0.010508                 7.0394099970079935
0.001951550683156804      0.00141582552198577      0.010508                 -1.1519073114133676
0.0020221255692973363     0.0014381879349881417    0.010508                 0.2230592944183627
0.002092700455437869      0.0014605503479905135    0.010508                 1.5409902660555872
0.002163275341578402      0.001482912760992885     0.010508                 -2.220324300675884
0.0022338502277189348     0.0015052751739952567    0.010508                 -11.060884405775823
0.0023044251138594676     0.0015276375869976283    0.010508                 -24.980690049244032
0.002375                  0.00155                  0.010508                 -22.106326019268124
0.0019596255692973363     0.001496521268321475     0.010508                 -2.057818355394943
0.002030200455437869      0.0015188836813238467    0.010508                 9.749230567518339
0.002100775341578402      0.0015412460943262183    0.010508                 1.5786104338752693
0.0021713502277189347     0.00156360850732859      0.010508                 -11.671255238136638
0.0022419251138594675     0.0015859709203309615    0.010508                 -30.000366448516843
0.0023125000000000003     0.0016083333333333331    0.010508                 -40.138304977334826
0.001967700455437869      0.00157721701465718      0.010508                 -5.481966110911344
0.002038275341578402      0.0015995794276595517    0.010508                 16.935541517701267
0.0021088502277189346     0.0016219418406619233    0.010508                 -0.7236297212222098
0.0021794251138594675     0.001644304253664295     0.010508                 -23.46204649851441
0.0022500000000000003     0.0016666666666666666    0.010508                 -47.05652687719214
0.0019757753415784018     0.0016579127609928847    0.010508                 -11.424350577961945
0.0020463502277189346     0.0016802751739952565    0.010508                 21.78199214496783
0.0021169251138594674     0.0017026375869976281    0.010508                 -5.365730199236566
0.0021875                 0.0017249999999999998    0.010508                 -42.86099171884035
0.0019838502277189345     0.00173860850732859      0.010508                 -19.88497175654686
0.0020544251138594673     0.0017609709203309616    0.010508                 24.28858244931729
0.002125                  0.0017833333333333332    0.010508                 -27.55169950227929
0.0019919251138594673     0.001819304253664295     0.010508                 -30.863829646666602
0.0020625                 0.0018416666666666666    0.010508                 -1.128650227508814
0.002                     0.0018999999999999998    0.010508                 -22.18046212415967
0.0025                    0.0019                   0.010508                 0
0.0024375000000000004     0.0018999999999999998    0.010508                 1.1470147296172554E-13
0.0025                    0.0018416666666666666    0.010508                 15.324094966194878
0.0024375                 0.0018416666666666666    0.010508                 9.318850987343296
0.002375                  0.0019                   0.010508                 2.806799362149206E-13
0.002375                  0.0018416666666666666    0.010508000000000002     3.3136070084918288
0.0023125000000000003     0.0018999999999999998    0.010508                 5.363931324781872E-13
0.0023125                 0.0018416666666666666    0.010508                 -2.691636970359866
0.0022500000000000003     0.0018999999999999998    0.010508                 6.49349219461795E-13
0.00225                   0.0018416666666666666    0.010508                 -8.696880949211447
0.0021875                 0.0018999999999999998    0.010508                 8.54457180627673E-13
0.0021874999999999998     0.0018416666666666664    0.010508000000000002     -14.702124928063085
0.002125                  0.0018999999999999998    0.010508                 9.376122453152296E-13
0.002125                  0.0018416666666666666    0.010508                 -20.707368906914667
0.0020625                 0.0019                   0.010508                 1.1281555729301227E-12
0.0025                    0.0017833333333333334    0.010508                 29.3072197418295
0.0024375                 0.0017833333333333334    0.010508                 17.29673178412611
0.002375                  0.0017833333333333334    0.010508                 5.286243826422833
0.0023125                 0.0017833333333333334    0.010508                 -6.724244131280329
0.0022500000000000003     0.0017833333333333332    0.010508                 -18.73473208898372
0.0021875                 0.0017833333333333332    0.010508                 -30.74522004668711
0.0025                    0.001725                 0.010508                 41.94937432690381
0.0024375                 0.001725                 0.010508                 23.933642390348837
0.002375                  0.001725                 0.010508                 5.917910453793638
0.0023125                 0.001725                 0.010508                 -12.09782148276122
0.0022500000000000003     0.001725                 0.010508                 -30.113553419316304
0.0025                    0.0016666666666666666    0.010508                 53.25055872141786
0.0024375                 0.0016666666666666666    0.010508                 29.229582806011194
0.0023750000000000004     0.0016666666666666666    0.010508                 5.208606890604642
0.0023125000000000003     0.0016666666666666666    0.010508                 -18.812369024802592
0.0025                    0.0016083333333333334    0.010508                 63.21077292537177
0.0024375                 0.0016083333333333334    0.010508                 33.184553031113296
0.0023750000000000004     0.0016083333333333331    0.010508                 3.158333136854935
0.0025                    0.00155                  0.010508                 71.83001693876531
0.0024375                 0.00155                  0.010508                 35.79855306565514
0.0025                    0.0014916666666666667    0.010508                 79.10829076159877
0.0021200954153475        9.06888389972205E-4      0.010508                 14.367865868294132
0.0020606993670322523     8.97315714362427E-4      0.010508                 3.1384155739472135
0.0020013033187170045     8.877430387526491E-4     0.010508000000000002     4.457452947768161
0.0019419072704017564     8.781703631428712E-4     0.010508                 2.3970810544084316
0.0018825112220865086     8.685976875330932E-4     0.010508                 -3.042700106132486
0.0018231151737712603     8.590250119233152E-4     0.010508000000000002     -11.861890533854847
0.0017637191254560125     8.494523363135372E-4     0.010508                 -24.06049022875763
0.0017043230771407647     8.398796607037593E-4     0.010508                 -20.209624320808132
0.0021029389274407144     8.487614771190328E-4     0.010508                 31.639947199818153
0.0020435428791254666     8.391888015092548E-4     0.010508000000000002     18.776761288934495
0.0019841468308102184     8.29616125899477E-4      0.010508                 9.345319162508076
0.0019247507824949705     8.20043450289699E-4      0.010508                 -3.4655322310991323
0.0018653547341797227     8.10470774679921E-4      0.010508                 -19.655792891887295
0.0018059586858644747     8.00898099070143E-4      0.010508000000000002     -39.2254628198566
0.0017465626375492269     7.91325423460365E-4      0.010508                 -53.13489281237025
0.002085782439533929      7.906345642658607E-4     0.010508                 43.85425746148917
0.0020263863912186805     7.810618886560829E-4     0.010508                 28.460666051757244
0.001966990342903433      7.714892130463049E-4     0.010508                 8.2787444250838
0.0019075942945881849     7.619165374365269E-4     0.010508                 -15.282586468771242
0.001848198246272937      7.523438618267489E-4     0.010508                 -42.223326629807275
0.001788802197957689      7.427711862169709E-4     0.010508                 -72.73893528089445
0.0020686259516271427     7.325076514126886E-4     0.010508                 51.01079665330815
0.0020092299033118953     7.229349758029106E-4     0.010508                 32.190129862415006
0.001949833854996647      7.133623001931327E-4     0.010508                 1.257728735493913
0.0018904378066813992     7.037896245833547E-4     0.010508                 -33.054081658607856
0.0018310417583661514     6.942169489735767E-4     0.010508                 -79.02175172638044
0.0020514694637203575     6.743807385595165E-4     0.010508                 53.10956477527543
0.001992073415405109      6.648080629497385E-4     0.010508                 29.965152720907554
0.0019326773670898614     6.552353873399606E-4     0.010508                 -11.717727906261132
0.0018732813187746136     6.456627117301826E-4     0.010508                 -71.98334214882664
0.0020343129758135714     6.162538257063444E-4     0.010508                 50.150561827390334
0.0019749169274983235     6.066811500965664E-4     0.010508                 21.78573462723523
0.0019155208791830757     5.971084744867885E-4     0.010508                 -51.62370654823462
0.0020171564879067857     5.581269128531722E-4     0.010508000000000002     42.133787809652404
0.001957760439591538      5.485542372433943E-4     0.010508000000000002     -17.942844924604913
0.002                     5.000000000000001E-4     0.010508000000000002     19.37282848137571
0.0015                    0.0018999999999999996    0.010507999999999998     -40.04256710139173
0.0015086518436101498     0.001837649416529337     0.010507999999999998     -79.82434998496211
0.0015625                 0.0018999999999999998    0.010507999999999998     1.4373973450303122E-12
0.0015711518436101499     0.0018376494165293369    0.010508                 -21.322044923851422
0.0015173036872202996     0.0017752988330586744    0.010508                 -94.59300723791361
0.0015798036872202994     0.0017752988330586744    0.010507999999999998     -37.30760267760206
0.0015259555308304489     0.001712948249588012     0.010507999999999998     -104.3698224109404
0.0015884555308304492     0.0017129482495880119    0.010507999999999998     -47.956673261251126
0.0015346073744405987     0.0016505976661173494    0.010508                 -109.15479550404427
0.001597107374440599      0.0016505976661173494    0.010508                 -53.26925667479645
0.0015432592180507484     0.001588247082646687     0.010508                 -108.94792651722412
0.0016057592180507483     0.001588247082646687     0.010508                 -53.245352918239064
0.0015519110616608982     0.0015258964991760246    0.010507999999999998     -103.74921545048196
0.001614411061660898      0.0015258964991760244    0.010508                 -47.8849619915797
0.0015605629052710477     0.001463545915705362     0.010508                 -93.55866230381507
0.0016230629052710478     0.001463545915705362     0.010508                 7.512475245696265
0.0015692147488811975     0.0014011953322346994    0.010508                 -42.30763457955762
0.0016250000000000001     0.0018999999999999996    0.010508                 1.6159393438844341E-12
0.0016336518436101497     0.001837649416529337     0.010508                 -6.738558300136901
0.0016423036872202995     0.0017752988330586746    0.010508                 -8.140629430173817
0.001650955530830449      0.001712948249588012     0.010508                 -4.20621339010745
0.0016596073744405988     0.0016505976661173496    0.010508                 5.0646898200616715
0.0016682592180507483     0.001588247082646687     0.010508                 19.67208020033354
0.001676911061660898      0.0015258964991760246    0.010508                 63.31599592038555
0.0016875                 0.0018999999999999998    0.010507999999999998     2.0034178251492034E-12
0.0016961518436101497     0.0018376494165293373    0.010507999999999998     7.844928323576738
0.0017048036872202995     0.0017752988330586748    0.010508                 21.026343817255427
0.001713455530830449      0.0017129482495880123    0.010507999999999998     39.544246481035884
0.0017221073744405988     0.0016505976661173496    0.010508                 63.398636314919486
0.0017307592180507484     0.001588247082646687     0.010508                 96.3144594368701
0.00175                   0.0018999999999999998    0.010508                 1.2107730921323672E-12
0.0017586518436101498     0.001837649416529337     0.010508                 22.428414947290946
0.0017673036872202993     0.0017752988330586746    0.010508                 50.193317064683924
0.0017759555308304491     0.0017129482495880123    0.010508                 83.29470635217945
0.0017846073744405989     0.0016505976661173496    0.010508                 106.50786579514909
0.0018125                 0.0018999999999999996    0.010508                 1.4737058224514519E-12
0.0018211518436101496     0.001837649416529337     0.010508                 37.011901571005865
0.0018298036872202994     0.0017752988330586746    0.010508                 79.36029031211274
0.0018384555308304492     0.001712948249588012     0.010508                 93.89621499522315
0.001875                  0.0018999999999999998    0.010507999999999998     6.270919360605545E-13
0.0018836518436101497     0.0018376494165293373    0.010508                 51.5953881947197
0.0018923036872202995     0.0017752988330586748    0.010508                 58.47950703709006
0.0019375                 0.0018999999999999998    0.010508                 3.2605274883832316E-14
0.0019461518436101497     0.0018376494165293373    0.010508                 0.2577419207525793
0.001889627640626421      0.0012727791921794025    0.010508                 4.646801635332082
0.0018977025267669537     0.0013534749385151076    0.010508                 8.931072717247048
0.0019057774129074862     0.0014341706848508126    0.010508000000000002     3.240194851930255
0.001913852299048019      0.0015148664311865174    0.010508                 -5.1472961135373225
0.0019219271851885517     0.0015955621775222222    0.010508                 -16.231400179156935
0.0019300020713290845     0.0016762579238579272    0.010508000000000002     -30.012117344928583
0.001938076957469617      0.0017569536701936323    0.010508                 -46.48944761085227
0.0018438543703771034     0.001291124355044445     0.010508                 -11.465463329953849
0.001851929256517636      0.00137182010138015      0.010508                 1.6570033383599139
0.0018600041426581687     0.0014525158477158547    0.010508                 8.405178973919192
0.0018680790287987014     0.0015332115940515597    0.010508                 12.45674150932723
0.001876153914939234      0.0016139073403872647    0.010508                 13.811690944583233
0.0018842288010797667     0.0016946030867229698    0.010508                 12.470027279687201
0.0017980811001277854     0.0013094695179094876    0.010508                 -21.576544736955654
0.0018061559862683181     0.0013901652642451924    0.010508                 0.17802582229205655
0.001814230872408851      0.0014708610105808972    0.010508                 19.36525495872661
0.0018223057585493837     0.0015515567569166023    0.010508                 35.855870995010946
0.0018303806446899164     0.0016322525032523073    0.010508                 49.64987393114188
0.0017523078298784679     0.0013278146807745297    0.010508                 -25.68644258567531
0.0017603827160190006     0.0014085104271102347    0.010508                 4.49414016904268
0.0017684576021595334     0.0014892061734459398    0.010508                 36.12042280635387
0.0017765324883000661     0.0015699019197816448    0.010508                 65.05009234351382
0.0017065345596291503     0.0013461598436395722    0.010508                 -23.795156876112216
0.001714609445769683      0.001426855589975277     0.010508                 14.605346378612694
0.0017226843319102156     0.001507551336310982     0.010508                 58.67068251679939
0.0016607612893798328     0.0013645050065046148    0.010508                 -15.902687608266291
0.0016688361755203653     0.0014452007528403198    0.010508                 30.511644451000905
0.001614988019130515      0.0013828501693696571    0.010508                 -2.0090347821368084
0.0018554629663584915     0.0012270291757585016    0.010508                 23.03761487438294
0.0018096896961091737     0.0012453743386235442    0.010508000000000002     5.088111080250883
0.0017639164258598562     0.0012637195014885865    0.010508                 -6.654117460134216
0.0017181431556105387     0.001282064664353629     0.010508                 -12.189070746773211
0.0016723698853612207     0.0013004098272186714    0.010508000000000002     -11.516748779664738
0.0016265966151119032     0.001318754990083714     0.010508                 -4.637151558809819
0.0015808233448625856     0.0013371001529487562    0.010508                 -52.43094445490755
0.0018212982920905619     0.001181279159337601     0.010508                 37.225802124448364
0.0017755250218412443     0.0011996243222026433    0.010508                 13.838201586991772
0.0017297517515919266     0.0012179694850676858    0.010508                 -3.342123696717863
0.001683978481342609      0.0012363146479327282    0.010508                 -14.315173726680882
0.0016382052110932913     0.0012546598107977705    0.010508                 -19.0809485028974
0.0015924319408439737     0.001273004973662813     0.010508                 -64.51554220676275
0.0017871336178226322     0.0011355291429167       0.010508                 39.932827538448464
0.0017413603475733147     0.0011538743057817424    0.010508                 11.10713025766745