% Model:              stripline_filter_simple_decomp_new_mesh.mph
% Version:            COMSOL 6.1.0.252
% Date:               May 4 2023, 12:53
% Dimension:          3
% Nodes:              953
% Expressions:        1
% Description:        Surface
% X                       Y                        Z                        real(emw.Ex)
0.0019354009108757384     0.0012544340293143602    0.010508                 -11.076083748702194
0.001960632284923057      0.0012182566885032373    0.010508                 -76.10576718594831
0.0020059757970162712     0.0012767964423167318    0.010508                 -36.794425678834386
0.0020312071710635897     0.001240619101505609     0.010508                 -35.20410756961593
0.0019858636589703753     0.0011820793476921144    0.010508                 -90.04293577372152
0.0020564385451109076     0.001204441760694486     0.010508000000000002     -37.480239893905974
0.0020110950330176937     0.0011459020068809915    0.010508                 -97.33914751142618
0.0020816699191582265     0.0011682644198833631    0.010508                 -34.2873897597444
0.002036326407065012      0.0011097246660698686    0.010508                 -97.99440239906403
0.002106901293205545      0.0011320870790722402    0.010508                 -25.625557167130694
0.0020615577811123305     0.0010735473252587457    0.010508                 -92.0087004366336
0.002132132667252863      0.0010959097382611173    0.010508000000000002     -11.494742116066199
0.002086789155159649      0.0010373699844476228    0.010508                 -79.3820416241357
0.0021573640413001817     0.0010597323974499947    0.010508                 8.10505539345013
0.0021120205292069674     0.0010011926436365       0.010508                 -60.11442596156934
0.0021825954153475        0.0010235550566388718    0.010508                 27.698184096449886
0.0021372519032542858     9.650153028253771E-4     0.010508                 -17.85086172432933
0.002076550683156804      0.0012991588553191034    0.010508                 -9.491032475933082
0.002101782057204122      0.0012629815145079808    0.010508                 -7.847078834480499
0.002127013431251441      0.0012268041736968579    0.010508                 -5.355898494046642
0.0021522448052987593     0.0011906268328857347    0.010508                 2.6042643048383525
0.0021774761793460777     0.001154449492074612     0.010508                 16.03340956217494
0.0022027075533933957     0.0011182721512634892    0.010508                 34.93153727796334
0.0022279389274407146     0.0010820948104523663    0.010508                 46.36566817578678
0.0021471255692973364     0.0013215212683214753    0.010508                 9.58617868435374
0.002172356943344655      0.0012853439275103524    0.010508                 11.526646393838291
0.0021975883173919733     0.0012491665866992295    0.010508                 18.78513939899517
0.0022228196914392917     0.0012129892458881066    0.010508                 31.51261486260387
0.00224805106548661       0.0011768119050769837    0.010508                 49.70907278466393
0.0022732824395339285     0.0011406345642658608    0.010508                 54.58689595254913
0.0022177004554378692     0.0013438836813238469    0.010508                 20.43720780202443
0.0022429318294851877     0.001307706340512724     0.010508                 22.917068115340726
0.002268163203532506      0.001271528999701601     0.010508                 34.94287378522063
0.0022933945775798245     0.0012353516588904782    0.010508                 52.43766191355235
0.002318625951627143      0.0011991743180793553    0.010508                 52.36186742673683
0.002288275341578402      0.0013662460943262185    0.010508                 23.062054877080186
0.0023135067156257205     0.0013300687535150956    0.010508                 26.324186330026123
0.002338738089673039      0.0012938914127039727    0.010508                 43.1173046646295
0.0023639694637203573     0.0012577140718928498    0.010508                 39.69058259835101
0.0023588502277189344     0.00138860850732859      0.010508                 17.460719909520265
0.002384081601766253      0.0013524311665174672    0.010508                 21.748001037894483
0.0024093129758135713     0.0013162538257063443    0.010508                 16.573041467391093
0.0024294251138594677     0.0014109709203309617    0.010508                 3.633202899345349
0.002454656487906786      0.0013747935795198388    0.010508                 -16.99075596614347
0.0025                    0.0014333333333333333    0.010508                 5.586539939178298
0.001901236236607809      0.0012086840128934593    0.010508                 42.80870703756375
0.0019264676106551274     0.0011725066720823364    0.010508                 -26.46549181565115
0.0018670715623398796     0.0011629339964725584    0.010508                 75.45765256867094
0.0018923029363871978     0.0011267566556614355    0.010508000000000002     14.127823686841111
0.0018329068880719498     0.0011171839800516578    0.010508                 92.98927204969618
0.0018581382621192684     0.0010810066392405347    0.010508                 40.11285194714765
0.0017987422138040204     0.001071433963630757     0.010508                 95.40356548064665
0.001823973587851339      0.0010352566228196338    0.010508                 51.48959296526755
0.001764577539536091      0.001025683947209856     0.010508                 82.7005328615162
0.0017898089135834092     9.895066063987331E-4     0.010508000000000002     48.25804674120354
0.0017304128652681616     9.799339307889551E-4     0.010508                 54.88017419230914
0.0017556442393154798     9.437565899778322E-4     0.010508                 30.418213274952905
0.001696248191000232      9.341839143680543E-4     0.010508                 11.942489473023102
0.0017214795650475504     8.980065735569314E-4     0.010508                 1.938331841120771
0.0016620835167323025     8.884338979471534E-4     0.010508                 9.31678049769163
0.0019516989847024459     0.0011363293312712135    0.010508                 -48.13208508992693
0.0019175343104345165     0.0010905793148503126    0.010508                 -8.37447067517678
0.0018833696361665866     0.0010448292984294118    0.010508                 16.77485649738719
0.0018492049618986572     9.99079282008511E-4      0.010508                 27.315896427765438
0.0018150402876307278     9.533292655876102E-4     0.010508                 23.24864911595887
0.0017808756133627984     9.075792491667093E-4     0.010508                 7.368227080456336
0.0019769303587497643     0.0011001519904600906    0.010508                 -61.985747122516386
0.0019427656844818349     0.0010544019740391897    0.010508                 -23.063833795510618
0.0019086010102139052     0.001008651957618289     0.010508                 1.2497922893112445
0.0018744363359459758     9.629019411973882E-4     0.010508                 10.955131131948292
0.0018402716616780462     9.171519247764873E-4     0.010508                 7.662233797850831
0.0020021617327970827     0.0010639746496489677    0.010508                 -68.02647791342451
0.001967997058529153      0.001018224633228067     0.010508                 -29.94026567415949
0.0019338323842612237     9.724746168071662E-4     0.010508                 -6.462340677079737
0.001899667709993294      9.267246003862653E-4     0.010508                 2.8203519933030066
0.002027393106844401      0.0010277973088378448    0.010508                 -66.25427746264813
0.0019932284325764717     9.820472924169442E-4     0.010508                 -29.00376631112408
0.001959063758308542      9.362972759960432E-4     0.010508                 -7.157418333186001
0.0020526244808917195     9.916199680267222E-4     0.010508                 -56.66914577018542
0.00201845980662379       9.458699516058212E-4     0.010508                 -22.271077181617045
0.002077855854939038      9.554426272155992E-4     0.010508                 -42.52062455198944
0.0024999999999999996     9.666666666666667E-4     0.010507999999999997     22.76216755225836
0.0024999999999999996     0.0010249999999999999    0.010507999999999998     8.931059596963156
0.0024546564879067857     9.664602461865055E-4     0.010507999999999998     20.301156897480922
0.0024546564879067857     0.0010247935795198388    0.010507999999999998     10.92447934810577
0.0024999999999999996     0.0010833333333333333    0.010507999999999997     -4.797711550379388
0.0024546564879067857     0.0010831269128531722    0.010507999999999998     1.6528867416603243
0.0024999999999999996     0.0011416666666666667    0.010507999999999997     -18.424145889766447
0.0024546564879067857     0.0011414602461865054    0.010507999999999998     -7.516369056830312
0.0024999999999999996     0.0012000000000000001    0.010507999999999998     -31.948243421196874
0.0024546564879067857     0.0011997935795198388    0.010507999999999998     -16.583288047364896
0.0025                    0.0012583333333333333    0.010508                 -45.37000414467261
0.002454656487906786      0.0012581269128531722    0.010508                 -25.547870229943417
0.0024999999999999996     0.0013166666666666667    0.010507999999999998     -58.689428060191844
0.0024546564879067857     0.0013164602461865054    0.010507999999999998     -34.41011560456634
0.0025                    0.001375                 0.010508                 -71.90651516775593
0.0024093129758135713     9.662538257063443E-4     0.010507999999999997     17.810287494974297
0.0024093129758135713     0.0010245871590396777    0.010507999999999997     12.886353145749613
0.0024093129758135713     0.0010829204923730109    0.010508                 8.071939080200021
0.0024093129758135713     0.0011412538257063443    0.010508                 3.3598618226063692
0.0024093129758135713     0.0011995871590396777    0.010508                 -1.249878627031451
0.0024093129758135713     0.001257920492373011     0.010508                 -5.757282268713215
0.002363969463720357      9.660474052261832E-4     0.010507999999999997     15.289559344738361
0.002363969463720357      0.0010243807385595164    0.010507999999999998     14.816680989894007
0.002363969463720357      0.0010827140718928498    0.010507999999999998     14.45944546524163
0.002363969463720357      0.0011410474052261832    0.010507999999999998     14.204546748544287
0.0023639694637203573     0.0011993807385595164    0.010508                 14.051984839802998
0.002318625951627143      9.658409847460218E-4     0.010507999999999998     12.73897244677319
0.002318625951627143      0.0010241743180793553    0.010507999999999998     16.71546288053964
0.002318625951627143      0.0010825076514126887    0.010508                 20.815405896783336
0.002318625951627143      0.0011408409847460219    0.010508                 25.017685720983437
0.0022732824395339285     9.656345642658606E-4     0.010508                 10.158526801078807
0.0022732824395339285     0.001023967897599194     0.010508                 18.582698817686044
0.0022732824395339285     0.0010823012309325274    0.010508                 27.139820374826503
0.002227938927440714      9.654281437856994E-4     0.010507999999999998     7.5482224076552455
0.002227938927440714      0.0010237614771190329    0.010507999999999998     20.41838880133357
0.0021825954153475        9.652217233055383E-4     0.010508                 4.908059266502361
0.0019434757970162712     0.001335129775650065     0.010508                 14.027272049053863
0.002014050683156804      0.0013574921886524366    0.010508                 -22.601286358749576
0.0020846255692973364     0.0013798546016548082    0.010508000000000002     -6.414650692211353
0.002155200455437869      0.0014022170146571799    0.010508                 1.3029243959128962
0.002225775341578402      0.0014245794276595515    0.010508                 0.5514389056231721
0.002296350227718935      0.0014469418406619235    0.010508000000000002     -8.669107163080412
0.0023669251138594676     0.0014693042536642951    0.010508                 -26.358713810197887
0.0024375000000000004     0.0014916666666666667    0.010508                 10.918782012525412
0.001951550683156804      0.00141582552198577      0.010508                 16.364410342741508
0.0020221255692973363     0.0014381879349881417    0.010508                 -3.0417278814941255
0.002092700455437869      0.0014605503479905135    0.010508                 -2.6855268838089614
0.002163275341578402      0.001482912760992885     0.010508                 -10.798386464537316
0.0022338502277189348     0.0015052751739952567    0.010508                 -27.38030662367987
0.0023044251138594676     0.0015276375869976283    0.010508                 -52.431287361236514
0.002375                  0.00155                  0.010508                 -33.32101086061823
0.0019596255692973363     0.001496521268321475     0.010508                 13.294776234976325
0.002030200455437869      0.0015188836813238467    0.010508                 12.54881686097201
0.002100775341578402      0.0015412460943262183    0.010508                 -2.925416810195202
0.0021713502277189347     0.00156360850732859      0.010508                 -26.868711059776786
0.0022419251138594675     0.0015859709203309615    0.010508                 -59.281065887772
0.0023125000000000003     0.0016083333333333331    0.010508                 -60.54548903882312
0.001967700455437869      0.00157721701465718      0.010508                 4.818369725759112
0.002038275341578402      0.0015995794276595517    0.010508                 24.170347868649287
0.0021088502277189346     0.0016219418406619233    0.010508                 -7.134320471370984
0.0021794251138594675     0.001644304253664295     0.010508                 -46.908049389805
0.0022500000000000003     0.0016666666666666666    0.010508                 -70.75465252208812
0.0019757753415784018     0.0016579127609928847    0.010508                 -9.064809184909791
0.0020463502277189346     0.0016802751739952565    0.010508                 31.822865141537704
0.0021169251138594674     0.0017026375869976281    0.010508                 -15.312237867335199
0.0021875                 0.0017249999999999998    0.010508                 -63.948501310414144
0.0019838502277189345     0.00173860850732859      0.010508                 -28.354760497030497
0.0020544251138594673     0.0017609709203309616    0.010508                 35.50636867963732
0.002125                  0.0017833333333333332    0.010508                 -40.127035403800846
0.0019919251138594673     0.001819304253664295     0.010508                 -53.05148421060335
0.0020625                 0.0018416666666666666    0.010508                 0.7097451977524543
0.002                     0.0018999999999999998    0.010508                 -41.57749016281341
0.0025                    0.0019                   0.010508                 0
0.0024375000000000004     0.0018999999999999998    0.010508                 2.0398208707000843E-13
0.0025                    0.0018416666666666666    0.010508                 19.987587827614675
0.0024375                 0.0018416666666666666    0.010508                 12.303451268320941
0.002375                  0.0019                   0.010508                 5.02686300560759E-13
0.002375                  0.0018416666666666666    0.010508000000000002     4.619314709026753
0.0023125000000000003     0.0018999999999999998    0.010508                 9.671542352878088E-13
0.0023125                 0.0018416666666666666    0.010508                 -3.064821850267208
0.0022500000000000003     0.0018999999999999998    0.010508                 1.1761803699939952E-12
0.00225                   0.0018416666666666666    0.010508                 -10.748958409561283
0.0021875                 0.0018999999999999998    0.010508                 1.5550688756769644E-12
0.0021874999999999998     0.0018416666666666664    0.010508000000000002     -18.433094968855357
0.002125                  0.0018999999999999998    0.010508                 1.717679345068474E-12
0.002125                  0.0018416666666666666    0.010508                 -26.117231528149205
0.0020625                 0.0019                   0.010508                 2.077931366782436E-12
0.0025                    0.0017833333333333334    0.010508                 39.4147369020169
0.0024375                 0.0017833333333333334    0.010508                 24.046463783428408
0.002375                  0.0017833333333333334    0.010508                 8.678190664840486
0.0023125                 0.0017833333333333334    0.010508                 -6.690082453747664
0.0022500000000000003     0.0017833333333333332    0.010508                 -22.058355572335813
0.0021875                 0.0017833333333333332    0.010508                 -37.42662869092419
0.0025                    0.001725                 0.010508                 58.28144722320667
0.0024375                 0.001725                 0.010508                 35.22903754532422
0.002375                  0.001725                 0.010508                 12.176627867441539
0.0023125                 0.001725                 0.010508                 -10.875781810440913
0.0022500000000000003     0.001725                 0.010508                 -33.92819148832359
0.0025                    0.0016666666666666666    0.010508                 76.58771879118399
0.0024375                 0.0016666666666666666    0.010508                 45.851172554007235
0.0023750000000000004     0.0016666666666666666    0.010508                 15.114626316830481
0.0023125000000000003     0.0016666666666666666    0.010508                 -15.621919920346954
0.0025                    0.0016083333333333334    0.010508                 94.33355160594829
0.0024375                 0.0016083333333333334    0.010508                 55.91286880947723
0.0023750000000000004     0.0016083333333333331    0.010508                 17.492186013006176
0.0025                    0.00155                  0.010508                 111.51894566750059
0.0024375                 0.00155                  0.010508                 65.41412631173512
0.0025                    0.0014916666666666667    0.010508                 128.14390097583987
0.0021200954153475        9.06888389972205E-4      0.010508                 12.280957273098238
0.0020606993670322523     8.97315714362427E-4      0.010508                 -8.931621639771038
0.0020013033187170045     8.877430387526491E-4     0.010508000000000002     -3.761132692653973
0.0019419072704017564     8.781703631428712E-4     0.010508                 -3.73846696440296
0.0018825112220865086     8.685976875330932E-4     0.010508                 -8.863624455018453
0.0018231151737712603     8.590250119233152E-4     0.010508000000000002     -19.136605164501248
0.0017637191254560125     8.494523363135372E-4     0.010508                 -34.557409092849696
0.0017043230771407647     8.398796607037593E-4     0.010508                 -29.60612752521797
0.0021029389274407144     8.487614771190328E-4     0.010508                 39.396652542710854
0.0020435428791254666     8.391888015092548E-4     0.010508000000000002     19.61683201213782
0.0019841468308102184     8.29616125899477E-4      0.010508                 8.475462295261423
0.0019247507824949705     8.20043450289699E-4      0.010508                 -7.813730640480571
0.0018653547341797227     8.10470774679921E-4      0.010508                 -29.250746795089025
0.0018059586858644747     8.00898099070143E-4      0.010508000000000002     -55.83558616856408
0.0017465626375492269     7.91325423460365E-4      0.010508                 -76.48417182153753
0.002085782439533929      7.906345642658607E-4     0.010508                 59.76231670716447
0.0020263863912186805     7.810618886560829E-4     0.010508                 39.87519468778737
0.001966990342903433      7.714892130463049E-4     0.010508                 12.421966306918875
0.0019075942945881849     7.619165374365269E-4     0.010508                 -20.17908529281685
0.001848198246272937      7.523438618267489E-4     0.010508                 -57.92796011141809
0.001788802197957689      7.427711862169709E-4     0.010508                 -103.45304428207032
0.0020686259516271427     7.325076514126886E-4     0.010508                 73.37794976645978
0.0020092299033118953     7.229349758029106E-4     0.010508                 51.843466387177614
0.001949833854996647      7.133623001931327E-4     0.010508                 8.078379342315998
0.0018904378066813992     7.037896245833547E-4     0.010508                 -40.83453092141144
0.0018310417583661514     6.942169489735767E-4     0.010508                 -110.51274490681749
0.0020514694637203575     6.743807385595165E-4     0.010508                 80.24355172059677
0.001992073415405109      6.648080629497385E-4     0.010508                 55.52164711030832
0.0019326773670898614     6.552353873399606E-4     0.010508                 -4.555298598545846
0.0018732813187746136     6.456627117301826E-4     0.010508                 -97.66327369577698
0.0020343129758135714     6.162538257063444E-4     0.010508                 80.35912256957522
0.0019749169274983235     6.066811500965664E-4     0.010508                 50.90973685718046
0.0019155208791830757     5.971084744867885E-4     0.010508                 -64.90463064895152
0.0020171564879067857     5.581269128531722E-4     0.010508000000000002     73.72466231339445
0.001957760439591538      5.485542372433943E-4     0.010508000000000002     -12.236815766339078
0.002                     5.000000000000001E-4     0.010508000000000002     40.22678063470512
0.0015                    0.0018999999999999996    0.010507999999999998     -76.05840919789132
0.0015086518436101498     0.001837649416529337     0.010507999999999998     -129.12634570110737
0.0015625                 0.0018999999999999998    0.010507999999999998     2.0499960045513736E-12
0.0015711518436101499     0.0018376494165293369    0.010508                 -25.76102546271659
0.0015173036872202996     0.0017752988330586744    0.010508                 -139.18325449745552
0.0015798036872202994     0.0017752988330586744    0.010507999999999998     -47.24743762295975
0.0015259555308304489     0.001712948249588012     0.010507999999999998     -144.25834018588432
0.0015884555308304492     0.0017129482495880119    0.010507999999999998     -64.45923648072767
0.0015346073744405987     0.0016505976661173494    0.010508                 -144.35160276639147
0.001597107374440599      0.0016505976661173494    0.010508                 -77.39642203602125
0.0015432592180507484     0.001588247082646687     0.010508                 -139.4630422389779
0.0016057592180507483     0.001588247082646687     0.010508                 -86.05899428883731
0.0015519110616608982     0.0015258964991760246    0.010507999999999998     -129.5926586036429
0.001614411061660898      0.0015258964991760244    0.010508                 -90.44695323917955
0.0015605629052710477     0.001463545915705362     0.010508                 -114.74045186038784
0.0016230629052710478     0.001463545915705362     0.010508                 -31.855668664290647
0.0015692147488811975     0.0014011953322346994    0.010508                 -62.071973117370675
0.0016250000000000001     0.0018999999999999996    0.010508                 2.3265997641023632E-12
0.0016336518436101497     0.001837649416529337     0.010508                 -6.230269282804215
0.0016423036872202995     0.0017752988330586746    0.010508                 -8.185925263136369
0.001650955530830449      0.001712948249588012     0.010508                 -5.866967940992367
0.0016596073744405988     0.0016505976661173496    0.010508                 0.7266026836274753
0.0016682592180507483     0.001588247082646687     0.010508                 11.594786610722167
0.001676911061660898      0.0015258964991760246    0.010508                 55.1693612959624
0.0016875                 0.0018999999999999998    0.010507999999999998     2.8312308459115786E-12
0.0016961518436101497     0.0018376494165293373    0.010507999999999998     13.300486897106964
0.0017048036872202995     0.0017752988330586748    0.010508                 30.875587096687987
0.001713455530830449      0.0017129482495880123    0.010507999999999998     52.72530059874339
0.0017221073744405988     0.0016505976661173496    0.010508                 78.84962740327455
0.0017307592180507484     0.001588247082646687     0.010508                 107.95456450015308
0.00175                   0.0018999999999999998    0.010508                 2.190225780702195E-12
0.0017586518436101498     0.001837649416529337     0.010508                 32.83124307701877
0.0017673036872202993     0.0017752988330586746    0.010508                 69.93709945651153
0.0017759555308304491     0.0017129482495880123    0.010508                 111.31756913847994
0.0017846073744405989     0.0016505976661173496    0.010508                 126.49994094827832
0.0018125                 0.0018999999999999996    0.010508                 2.544706722545232E-12
0.0018211518436101496     0.001837649416529337     0.010508                 52.361999256931426
0.0018298036872202994     0.0017752988330586746    0.010508                 108.9986118163365
0.0018384555308304492     0.001712948249588012     0.010508                 110.80549064033858
0.001875                  0.0018999999999999998    0.010507999999999998     1.83697260618641E-12
0.0018836518436101497     0.0018376494165293373    0.010508                 71.89275543684312
0.0018923036872202995     0.0017752988330586748    0.010508                 60.87121357633339
0.0019375                 0.0018999999999999998    0.010508                 1.4087594786390069E-12
0.0019461518436101497     0.0018376494165293373    0.010508                 -23.30289024373735
0.001889627640626421      0.0012727791921794025    0.010508                 30.859329389188105
0.0018977025267669537     0.0013534749385151076    0.010508                 43.31650396764485
0.0019057774129074862     0.0014341706848508126    0.010508000000000002     30.203532292619457
0.001913852299048019      0.0015148664311865174    0.010508                 10.246029549481136
0.0019219271851885517     0.0015955621775222222    0.010508                 -16.55600426177307
0.0019300020713290845     0.0016762579238579272    0.010508000000000002     -50.2025691411427
0.001938076957469617      0.0017569536701936323    0.010508                 -90.693665088628
0.0018438543703771034     0.001291124355044445     0.010508                 -1.0217089265267418
0.001851929256517636      0.00137182010138015      0.010508                 19.678747614232407
0.0018600041426581687     0.0014525158477158547    0.010508                 24.16852082291689
0.0018680790287987014     0.0015332115940515597    0.010508                 21.81376296348708
0.001876153914939234      0.0016139073403872647    0.010508                 12.614474035942294
0.0018842288010797667     0.0016946030867229698    0.010508                 -3.429345959717466
0.0017980811001277854     0.0013094695179094876    0.010508                 -24.49768782849256
0.0018061559862683181     0.0013901652642451924    0.010508                 4.3982576415724
0.001814230872408851      0.0014708610105808972    0.010508                 26.490775733966984
0.0018223057585493837     0.0015515567569166023    0.010508                 41.73876275824705
0.0018303806446899164     0.0016322525032523073    0.010508                 50.14221871441123
0.0017523078298784679     0.0013278146807745297    0.010508                 -39.56860731670997
0.0017603827160190006     0.0014085104271102347    0.010508                 -2.5249659503340354
0.0017684576021595334     0.0014892061734459398    0.010508                 37.17029702576974
0.0017765324883000661     0.0015699019197816448    0.010508                 70.02102893375854
0.0017065345596291503     0.0013461598436395722    0.010508                 -46.23446739117813
0.001714609445769683      0.001426855589975277     0.010508                 -1.0909231614882628
0.0017226843319102156     0.001507551336310982     0.010508                 56.20708469832516
0.0016607612893798328     0.0013645050065046148    0.010508                 -44.49526805189765
0.0016688361755203653     0.0014452007528403198    0.010508                 8.700386008110854
0.001614988019130515      0.0013828501693696571    0.010508                 -34.35100929886815
0.0018554629663584915     0.0012270291757585016    0.010508                 44.22188091905559
0.0018096896961091737     0.0012453743386235442    0.010508000000000002     14.293232910033225
0.0017639164258598562     0.0012637195014885865    0.010508                 -7.182562652243519
0.0017181431556105387     0.001282064664353629     0.010508                 -20.205505767776685
0.0016723698853612207     0.0013004098272186714    0.010508000000000002     -24.775596436564797
0.0016265966151119032     0.001318754990083714     0.010508                 -20.892834658606716
0.0015808233448625856     0.0013371001529487562    0.010508                 -101.842661490218
0.0018212982920905619     0.001181279159337601     0.010508                 60.68368277631748
0.0017755250218412443     0.0011996243222026433    0.010508                 23.347962152580976
0.0017297517515919266     0.0012179694850676858    0.010508                 -5.534906024410475
0.001683978481342609      0.0012363146479327282    0.010508                 -25.964921754657553
0.0016382052110932913     0.0012546598107977705    0.010508                 -37.94208503816094
0.0015924319408439737     0.001273004973662813     0.010508                 -113.69331173756814
0.0017871336178226322     0.0011355291429167       0.010508                 61.51911977560803
0.0017413603475733147     0.0011538743057817424    0.010508                 16.77632653715773