% Model:              stripline_filter_simple_decomp_new_mesh.mph
% Version:            COMSOL 6.1.0.252
% Date:               May 4 2023, 12:54
% Dimension:          3
% Nodes:              1338
% Expressions:        1
% Description:        Surface
% X                       Y                        Z                        real(emw.Ex)
0.002250371059634427      0.0016305346794393836    0.001608                 -352.9394805759228
0.0022466181113357884     0.0015905708277024443    0.0016080000000000003    -391.97217363102226
0.002286032336829509      0.0016182819229022096    0.001608                 -355.4948937020421
0.00228227938853087       0.0015783180711652699    0.001608                 -401.0794796353503
0.00224286516303715       0.0015506069759655045    0.001608                 -430.89042641849755
0.002278526440232231      0.0015383542194283306    0.0016079999999999998    -441.52414728752814
0.002239112214738511      0.0015106431242285653    0.001608                 -467.2506480500857
0.0022747734919335927     0.0014983903676913913    0.0016079999999999998    -479.2865087401128
0.0022353592664398725     0.001470679272491626     0.001608                 -501.0528385257864
0.0022710205436349542     0.001458426515954452     0.001608                 -514.3665639931032
0.002231606318141234      0.0014307154207546865    0.001608                 -532.2969978456
0.0022672675953363157     0.0014184626642175123    0.0016079999999999998    -546.7643130465007
0.002227853369842595      0.001390751569017747     0.001608                 -560.9831260095261
0.002263514647037677      0.0013784988124805728    0.0016079999999999998    -583.904816361259
0.0022241004215439565     0.0013507877172808077    0.001608                 -586.9905317573634
0.0023216936140245904     0.001606029166365035     0.001608                 -377.9677449045163
0.002317940665725952      0.0015660653146280954    0.0016079999999999998    -423.1221754756
0.0023141877174273134     0.0015261014628911564    0.001608                 -463.09623550335095
0.002310434769128675      0.0014861376111542169    0.001608                 -500.38798933150815
0.002306681820830036      0.0014461737594172774    0.001608                 -534.9974369600716
0.0023029288725313975     0.001406209907680338     0.001608                 -574.0739509353864
0.0023573548912196726     0.0015937764098278608    0.0016079999999999996    -400.40924889363765
0.0023536019429210337     0.0015538125580909215    0.0016079999999999998    -445.1284382283843
0.002349848994622395      0.0015138487063539822    0.001608                 -484.6318906317082
0.0023460960463237562     0.0014738848546170427    0.0016079999999999998    -521.4530368354384
0.0023423430980251177     0.0014339210028801032    0.0016079999999999996    -562.4387992567131
0.0023930161684147543     0.0015815236532906868    0.0016079999999999998    -422.81940566940636
0.002389263220116116      0.0015415598015537475    0.001608                 -467.0982678937031
0.002385510271817477      0.0015015959498168078    0.0016079999999999998    -506.1311126725998
0.0023817573235188384     0.0014616320980798683    0.0016079999999999996    -548.9993613252391
0.002428677445609836      0.0015692708967535124    0.0016079999999999996    -445.1982152318224
0.002424924497311197      0.001529307045016573     0.0016079999999999996    -489.0316644715563
0.0024211715490125587     0.0014893431932796338    0.0016079999999999996    -533.7556371409642
0.002464338722804918      0.0015570181402163382    0.0016079999999999996    -467.5456775808858
0.002460585774506279      0.0015170542884793987    0.0016079999999999996    -516.7076267038884
0.0024999999999999996     0.001544765383679164     0.0016079999999999996    -494.3161384005198
0.0024999999999999996     0.001595513186010712     0.0016079999999999996    -426.8916345033829
0.002464338722804918      0.0016077659425478862    0.0016079999999999996    -404.24475952519884
0.0024999999999999996     0.0016462609883422601    0.0016079999999999996    -364.1317140264138
0.002464338722804918      0.001658513744879434     0.0016079999999999996    -341.1390563141182
0.0024999999999999996     0.001697008790673808     0.0016079999999999996    -298.95799374262924
0.002464338722804918      0.0017092615472109822    0.0016079999999999998    -275.61955329622174
0.0024999999999999996     0.0017477565930053558    0.0016079999999999996    -231.3704736520287
0.0024643387228049183     0.0017600093495425302    0.001608                 -207.68625047150942
0.0025                    0.0017985043953369039    0.0016079999999999998    -161.36915375461228
0.0024643387228049183     0.001810757151874078     0.0016079999999999998    -137.33914783998125
0.0025                    0.001849252197668452     0.0016079999999999998    -88.95403405038019
0.0024643387228049183     0.0018615049542056261    0.0016079999999999998    -60.53300670532499
0.0025                    0.0019                   0.0016079999999999998    -7.062557269666055
0.002428677445609836      0.0016200186990850602    0.0016079999999999996    -381.571623207775
0.002428677445609836      0.0016707665014166085    0.0016079999999999998    -318.1201372625826
0.0024286774456098365     0.0017215143037481563    0.0016079999999999998    -252.25485151057438
0.0024286774456098365     0.0017722621060797042    0.0016079999999999998    -183.97576595175033
0.0024286774456098365     0.0018230099084112525    0.0016079999999999998    -112.29165133817287
0.002393016168414754      0.0016322714556222346    0.0016079999999999998    -358.87222555111146
0.0023930161684147548     0.0016830192579537825    0.001608                 -295.0749568718072
0.0023930161684147548     0.0017337670602853308    0.0016079999999999998    -228.86388838568723
0.0023930161684147543     0.0017845148626168786    0.0016079999999999998    -162.33849116820966
0.0023573548912196726     0.0016445242121594088    0.001608                 -336.1465665552081
0.0023573548912196726     0.0016952720144909569    0.001608                 -272.00351514179215
0.0023573548912196726     0.0017460198168225047    0.0016079999999999998    -210.6735261954353
0.0023216936140245904     0.001656776968696583     0.001608                 -313.3946462200649
0.002321693614024591      0.0017075247710281309    0.001608                 -257.29675641984994
0.0022860323368295086     0.0016690297252337572    0.001608                 -302.20818184145355
0.0022004127360446967     0.001619132952038473     0.0016080000000000003    -360.2991625293277
0.002196659787746058      0.0015791691003015332    0.0016080000000000003    -395.0495995430158
0.0021504544124549664     0.001607731224637562     0.001608                 -350.5913297120006
0.002146701464156328      0.0015677673729006226    0.001608                 -384.36536756601066
0.0021004960888652362     0.0015963294972366512    0.001608                 -340.1160159118616
0.0020967431405665977     0.001556365645499712     0.001608                 -372.89130062339416
0.002050537765275506      0.0015849277698357406    0.001608                 -328.8732211289108
0.0020467848169768675     0.0015449639180988013    0.0016080000000000003    -360.6273987151664
0.002000579441685776      0.00157352604243483      0.001608                 -316.86294536314824
0.001996826493387137      0.0015335621906978902    0.001608                 -347.5736618413272
0.0019506211180960458     0.0015621243150339191    0.001608                 -304.0851886145738
0.001946868169797407      0.0015221604632969796    0.001608                 -330.1602051533283
0.0019006627945063156     0.0015507225876330085    0.001608                 -290.1485083022076
0.0021929068394474192     0.001539205248564594     0.0016079999999999998    -430.23943990929683
0.0021429485158576895     0.0015278035211636833    0.001608                 -417.82381800022694
0.0020929901922679592     0.0015164017937627726    0.001608                 -404.61836112554585
0.002043031868678229      0.001505000066361862     0.001608                 -390.62306928525345
0.0019930735450884984     0.001493598338960951     0.001608                 -371.9184608722562
0.0021891538911487807     0.0014992413968276546    0.001608                 -462.9955241633969
0.002139195567559051      0.001487839669426744     0.001608                 -448.84851232226225
0.0020892372439693203     0.001476437942025833     0.001608                 -433.91166551551646
0.00203927892037959       0.0014650362146249223    0.001608                 -413.81476798660066
0.0021854009428501422     0.0014592775450907153    0.001608                 -493.3178523053159
0.002135442619260412      0.0014478758176898045    0.001608                 -477.4394505321169
0.002085484295670682      0.0014364740902888936    0.001608                 -455.8491264963615
0.0021816479945515038     0.0014193136933537756    0.001608                 -521.2064243350542
0.0021316896709617735     0.001407911965952865     0.001608                 -498.0215364015387
0.002177895046252865      0.001379349841616836     0.001608                 -540.3319977021323
0.002000390975172604      0.0011928054344492603    0.001608                 -511.4144855432276
0.0020323494675113687     0.0012153743319966242    0.0016080000000000003    -537.0779206880989
0.001986144092220277      0.0012439364563326528    0.0016080000000000003    -482.4503113371264
0.0020181025845590417     0.0012665053538800167    0.0016080000000000003    -504.22357594538187
0.002064307959850133      0.001237943229543988     0.001608                 -546.115648071541
0.002050061076897806      0.0012890742514273805    0.001608                 -512.8784278359972
0.0020962664521888977     0.0012605121270913519    0.001608                 -553.895432270161
0.002082019569236571      0.0013116431489747444    0.001608                 -520.1837717019321
0.0021282249445276624     0.001283081024638716     0.001608                 -560.4172732839588
0.002113978061575336      0.0013342120465221086    0.0016080000000000003    -526.1396075431862
0.002160183436866427      0.00130564992218608      0.001608                 -565.6811711129345
0.0021459365539141        0.0013567809440694723    0.001608                 -530.7459353597601
0.002192141929205192      0.0013282188197334436    0.001608                 -569.6871257570881
0.00197189720926795       0.0012950674782160455    0.001608                 -457.5554907099488
0.0020038557016067147     0.0013176363757634094    0.0016079999999999998    -474.67952273712785
0.0020358141939454794     0.0013402052733107732    0.001608                 -481.1455141331884
0.002067772686284244      0.0013627741708581373    0.001608                 -486.2619975045685
0.002099731178623009      0.0013853430684055011    0.001608                 -490.028972851268
0.001957650326315623      0.001346198500099438     0.001608                 -429.90624540049913
0.001989608818654388      0.0013687673976468019    0.001608                 -442.1441705689408
0.002021567310993153      0.001391336295194166     0.001608                 -446.4213014704464
0.002053525803331917      0.0014139051927415298    0.001608                 -449.3489243472717
0.0019434034433632964     0.0013973295219828308    0.001608                 -399.50257540877783
0.001975361935702061      0.0014198984195301946    0.001608                 -406.6175194408204
0.002007320428040826      0.0014424673170775584    0.001608                 -408.70578984777126
0.0019291565604109694     0.0014484605438662233    0.001608                 -366.3444807347845
0.0019611150527497337     0.001471029441413587     0.001608                 -368.09956935276665
0.0019149096774586426     0.0014995915657496158    0.001608                 -330.43196137851885
0.00223001630180205       0.0016690297252337574    0.0016080000000000003    -312.90873578932366
0.0022656775789971317     0.0017075247710281309    0.001608                 -261.207060759289
0.0023013388561922135     0.0017460198168225047    0.001608                 -212.3158764630112
0.0023370001333872952     0.0017845148626168786    0.001608                 -161.74957823894354
0.0023726614105823774     0.0018230099084112525    0.001608                 -109.50816608708575
0.002408322687777459      0.001861504954205626     0.0016079999999999998    -55.59164000743787
0.002443983964972541      0.0018999999999999998    0.0016079999999999998    -2.0662312516773118E-14
0.002209661543969672      0.0017075247710281309    0.001608                 -259.2077134434619
0.0022453228211647544     0.0017460198168225047    0.0016079999999999998    -208.73136445671216
0.002280984098359836      0.0017845148626168786    0.0016079999999999998    -159.06119423421922
0.0023166453755549183     0.0018230099084112525    0.001608                 -107.71591008393624
0.00235230665275          0.001861504954205626     0.0016079999999999998    -54.69551200586316
0.002387967929945082      0.0018999999999999998    0.0016079999999999998    -4.711864091250663E-14
0.0021893067861372953     0.0017460198168225047    0.001608                 -205.46043404406493
0.002224968063332377      0.0017845148626168786    0.001608                 -156.37281022949492
0.0022606293405274588     0.0018230099084112525    0.001608                 -105.9236540807867
0.002296290617722541      0.001861504954205626     0.001608                 -53.79938400428841
0.0023319518949176223     0.0018999999999999998    0.0016079999999999998    -7.213272965512106E-14
0.002168952028304918      0.0017845148626168786    0.001608                 -151.66689759113268
0.0022046133054999997     0.0018230099084112525    0.001608                 -104.13139807763721
0.002240274582695082      0.0018615049542056261    0.001608                 -52.90325600271366
0.002275935859890163      0.0018999999999999998    0.0016079999999999998    -9.570457874461632E-14
0.0021485972704725406     0.0018230099084112525    0.001608                 -97.82710408466531
0.002184258547667622      0.001861504954205626     0.001608                 -52.00712800113887
0.002219919824862704      0.0018999999999999998    0.001608                 -1.178341881809923E-13
0.002128242512640163      0.001861504954205626     0.001608                 -43.94105352466268
0.002163903789835245      0.0018999999999999996    0.001608                 -1.3852155796424926E-13
0.002107887754807786      0.0018999999999999998    0.001608                 6.6608360592501725
0.0017026113614105663     0.0018999999999999998    0.0016079999999999998    2.508149002011193
0.0017309044232813877     0.0018501032268047153    0.001608                 -34.463771629260926
0.0017605079890387406     0.0018999999999999998    0.001608                 -1.0189019539720807E-13
0.001788801050909562      0.0018501032268047153    0.001608                 -41.298360440274266
0.0017591974851522089     0.001800206453609431     0.0016079999999999998    -74.11544646440737
0.0018170941127803831     0.0018002064536094308    0.0016079999999999998    -84.420040733311
0.0017874905470230303     0.0017503096804141463    0.0016079999999999998    -115.19280100242267
0.0018453871746512045     0.0017503096804141463    0.001608                 -129.36504087911027
0.0018157836088938516     0.0017004129072188618    0.001608                 -157.69583524330682
0.0018736802365220259     0.001700412907218862     0.001608                 -176.1333608776719
0.0018440766707646728     0.0016505161340235773    0.001608                 -201.62454918705987
0.001901973298392847      0.0016505161340235773    0.001608                 -224.72500072899624
0.0018723697326354944     0.001600619360828293     0.001608                 -246.97894283368174
0.0019302663602636684     0.0016006193608282928    0.001608                 -265.3923532757691
0.0018184046166669148     0.0018999999999999998    0.0016079999999999998    9.165918650936347E-14
0.001846697678537736      0.0018501032268047153    0.0016079999999999998    -43.99998634106524
0.0018749907404085574     0.0018002064536094308    0.0016079999999999998    -89.82329253489297
0.0019032838022793788     0.0017503096804141463    0.001608                 -137.46991858148303
0.0019315768641502001     0.0017004129072188618    0.0016079999999999998    -186.93986448083552
0.0019598699260210215     0.0016505161340235773    0.001608                 -228.38576688156292
0.0018763012442950889     0.0018999999999999998    0.0016079999999999998    2.65283876472507E-14
0.0019045943061659102     0.0018501032268047153    0.001608                 -46.701612241856154
0.0019328873680367316     0.0018002064536094308    0.001608                 -95.22654433647475
0.001961180429907553      0.0017503096804141463    0.001608                 -145.5747962838559
0.0019894734917783744     0.0017004129072188618    0.001608                 -187.82290788739618
0.001934197871923263      0.0018999999999999998    0.001608                 2.277515025833282E-14
0.0019624909337940845     0.0018501032268047155    0.001608                 -49.40323814264708
0.001990783995664906      0.0018002064536094308    0.001608                 -100.62979613805673
0.0020190770575357272     0.0017503096804141463    0.001608                 -143.70377629326907
0.0019920944995514374     0.0018999999999999998    0.001608                 8.924120690939662E-15
0.0020203875614222587     0.0018501032268047153    0.001608                 -52.104864043438
0.00204868062329308       0.001800206453609431     0.001608                 -96.02837209918154
0.0020499911271796116     0.0018999999999999998    0.001608                 3.254141952760253E-14
0.002078284189050433      0.001850103226804715     0.001608                 -44.79669530513342
0.0021800579782123193     0.0016576279978328464    0.0016080000000000003    -308.96555889549893
0.002159703220379942      0.0016961230436272202    0.001608                 -254.5491396144667
0.002139348462547565      0.001734618089421594     0.001608                 -199.92306415100433
0.0021189937047151877     0.001773113135215968     0.0016080000000000003    -145.0873325051122
0.00209863894688281       0.0018116081810103414    0.001608                 -90.04194467679007
0.002130099654622589      0.0016462262704319357    0.0016079999999999998    -299.7916503401151
0.002109744896790212      0.0016847213162263098    0.001608                 -246.66414609341223
0.002089390138957835      0.0017232163620206835    0.001608                 -193.32698566427956
0.0020690353811254575     0.0017617114078150571    0.001608                 -139.78016905271704
0.0020801413310328593     0.001634824543031025     0.001608                 -289.8726147847188
0.002059786573200482      0.001673319588825399     0.001608                 -238.03402557234574
0.0020394318153681046     0.0017118146346197726    0.001608                 -185.9857801775426
0.002030183007443129      0.0016234228156301145    0.001608                 -279.20845222931007
0.0020098282496107513     0.0016619178614244883    0.001608                 -228.6587780512665
0.0019802246838533984     0.0016120210882292034    0.001608                 -267.7991626738889
0.0018431412993726323     0.0015503443969360601    0.0016080000000000003    -240.64193652677005
0.0018148482375018107     0.0016002411701313444    0.001608                 -198.55945494623558
0.0017865551756309894     0.001650137943326629     0.001608                 -157.44718245451682
0.0017582621137601682     0.0017000347165219134    0.001608                 -117.36294951577341
0.001729969051889347      0.001749931489717198     0.001608                 -78.30675613000525
0.0017016759900185254     0.0017998282629124824    0.0016079999999999998    -40.27860229721231
0.001673382928147704      0.0018497250361077667    0.0016079999999999998    -6.224405640399972
0.0017856198042389487     0.0015499662062391116    0.001608                 -202.2719110687578
0.0017573267423681273     0.001599862979434396     0.0016079999999999998    -162.06262319670188
0.0017290336804973061     0.0016497597526296806    0.0016079999999999998    -122.83353170321266
0.0017007406186264847     0.001699656525824965     0.001608                 -84.63247976269867
0.0016724475567556636     0.0017495532990202496    0.0016079999999999998    -47.45946737515992
0.0016441544948848422     0.001799450072215534     0.0016079999999999998    -13.284777195490962
0.0017280983091052652     0.0015495880155421632    0.001608                 -163.8713051183234
0.001699805247234444      0.0015994847887374477    0.001608                 -125.53718539042563
0.0016715121853636229     0.0016493815619327322    0.001608                 -88.19127489516589
0.0016432191234928013     0.0016992783351280167    0.001608                 -51.87340395288126
0.0016149260616219801     0.0017491751083233012    0.0016079999999999998    -17.418891162256017
0.001670576813971582      0.0015492098248452149    0.001608                 -125.4401186754669
0.0016422837521007606     0.0015991065980404996    0.001608                 -88.98314152740684
0.0016139906902299392     0.0016490033712357839    0.001608                 -53.52041203037648
0.0015856976283591178     0.0016989001444310684    0.0016079999999999998    -18.626747540695057
0.0016130553188378983     0.0015488316341482667    0.001608                 -86.97835174018829
0.001584762256967077      0.001598728407343551     0.001608                 -52.40049160764542
0.0015564691950962558     0.0016486251805388355    0.001608                 -16.90834633080822
0.001555533823704215      0.0015484534434513182    0.001608                 -48.48600431248772
0.0015272407618333937     0.0015983502166466025    0.001608                 -12.26368753259554
0.0014980123285705316     0.0015480752527543698    0.001608                 -3.86089542827051
0.001524707689725261      0.0014978132477201796    0.0016080000000000003    -32.96016165663362
0.0015822291848589444     0.001498191438417128     0.0016080000000000003    -78.81072334346689
0.0015514030508799904     0.0014475512426859892    0.001608                 -59.942688563816304
0.0016089245460136738     0.0014479294333829373    0.001608                 -109.71532360008936
0.0015780984120347197     0.0013972892376517988    0.001608                 -88.02393259746722
0.0016356199071684032     0.001397667428348747     0.001608                 -141.17216671015478
0.0016047937731894493     0.0013470272326176085    0.001608                 -117.20389375758657
0.0016623152683231327     0.0013474054233145569    0.0016080000000000003    -173.18125267366304
0.0016314891343441786     0.0012967652275834181    0.001608                 -147.48257204417433
0.001689010629477862      0.0012971434182803662    0.001608                 -205.7425814906142
0.0016581844954989078     0.001246503222549228     0.001608                 -178.85996745723043
0.0017157059906325912     0.001246881413246176     0.001608                 -237.64670187275163
0.0016848798566536374     0.0011962412175150375    0.001608                 -214.50141460166728
0.001639750679992628      0.0014985696291140763    0.0016079999999999998    -119.46219841169943
0.001666446041147357      0.0014483076240798859    0.001608                 -152.5280158558865
0.0016931414023020866     0.0013980456190456957    0.001608                 -186.14607615351636
0.0017198367634568162     0.0013477836140115052    0.001608                 -220.31637930458902
0.0017465321246115453     0.0012975216089773148    0.001608                 -256.2940318348226
0.0016972721751263111     0.0014989478198110247    0.001608                 -160.0811185518303
0.0017239675362810407     0.0014486858147768344    0.001608                 -195.30815318358174
0.00175066289743577       0.0013984238097426438    0.001608                 -231.08743066877634
0.0017773582585904994     0.0013481618047084536    0.001608                 -270.8800846416767
0.0017547936702599948     0.001499326010507973     0.001608                 -200.66748376385942
0.001781489031414724      0.0014490640054737828    0.001608                 -238.05573558317565
0.0018081843925694533     0.0013988020004395921    0.001608                 -281.4048602933137
0.001812315165393678      0.0014997042012049214    0.001608                 -241.22129404778715
0.0018390105265484074     0.001449442196170731     0.001608                 -287.8683587897332
0.0018698366605273615     0.0015000823919018697    0.001608                 -290.2705801309356
0.0019553179582413233     0.0011932962606015143    0.0016080000000000003    -450.50009303803597
0.0019410710752889961     0.0012444272824849068    0.0016080000000000003    -431.5964577774636
0.0019268241923366689     0.0012955583043682995    0.001608                 -410.07198920284463
0.0019125773093843423     0.001346689326251692     0.001608                 -386.0299702236139
0.0018983304264320153     0.0013978203481350847    0.0016080000000000003    -359.4704008397733
0.0018840835434796883     0.0014489513700184772    0.001608                 -330.3932810513214
0.001910244941310042      0.001193787086753768     0.001608                 -410.53179864610877
0.001895998058357715      0.0012449181086371607    0.0016079999999999998    -392.5292113867981
0.0018817511754053882     0.0012960491305205532    0.001608                 -371.9147227782141
0.0018675042924530614     0.001347180152403946     0.001608                 -348.7826837650198
0.0018532574095007344     0.0013983111742873384    0.001608                 -323.133094347215
0.001865171924378761      0.001194277912906022     0.001608                 -370.5717889771064
0.0018509250414264341     0.0012454089347894146    0.001608                 -353.4796674721683
0.0018366781584741073     0.0012965399566728071    0.001608                 -333.775158829621
0.0018224312755217803     0.0013476709785561996    0.001608                 -311.55309978246214
0.0018200989074474803     0.0011947687390582756    0.001608                 -330.6200640310287
0.0018058520244951535     0.0012458997609416686    0.001608                 -314.4478260335744
0.0017916051415428264     0.001297030782825061     0.001608                 -295.6532973570626
0.0017750258905161994     0.0011952595652105296    0.001608                 -290.6766238078761
0.0017607790075638723     0.001246390587093922     0.001608                 -275.43368707101615
0.0017299528735849183     0.0011957503913627835    0.001608                 -250.7414683076482
0.001984893452320434      0.0011414399700013125    0.0016080000000000003    -487.70283477376483
0.0019398204353891528     0.0011419307961535665    0.0016080000000000003    -434.42313367364846
0.0018947474184578717     0.0011424216223058202    0.001608                 -394.5357892176361
0.0018496744015265908     0.0011429124484580741    0.001608                 -354.64731173143707
0.00180460138459531       0.001143403274610328     0.0016080000000000003    -314.7577012150517
0.001759528367664029      0.0011438941007625818    0.001608                 -274.8669576684797
0.001714455350732748      0.0011443849269148357    0.001608                 -243.44869776922246
0.0019693959294682633     0.0010900745055533647    0.001608                 -465.5553385904806
0.0019243229125369822     0.0010905653317056186    0.0016079999999999998    -415.78471103572736
0.0018792498956057015     0.0010910561578578724    0.001608                 -375.9693845508548
0.0018341768786744208     0.0010915469840101265    0.001608                 -336.15292503579553
0.0017891038617431397     0.0010920378101623802    0.001608                 -296.33533249055
0.0017440308448118586     0.0010925286363146342    0.001608                 -260.0999917104357
0.001953898406616093      0.0010387090411054169    0.001608                 -440.01232279827644
0.0019088253896848125     0.0010391998672576708    0.001608                 -394.4815422148357
0.0018637523727535314     0.0010396906934099248    0.001608                 -354.7382337011027
0.0018186793558222503     0.0010401815195621787    0.001608                 -314.99379215718335
0.0017736063388909694     0.0010406723457144324    0.001608                 -274.6313974238999
0.001938400883763923      9.873435766574693E-4     0.001608                 -411.0737873971524
0.001893327866832642      9.878344028097232E-4     0.001608                 -370.51362721097337
0.001848254849901361      9.88325228961977E-4      0.001608                 -330.8423366683803
0.00180318183297008       9.888160551142309E-4     0.001608                 -287.04291490961475
0.0019229033609117524     9.359781122095215E-4     0.001608                 -378.73973238710823
0.0018778303439804715     9.364689383617752E-4     0.001608                 -343.8809660241405
0.0018327573270491906     9.369597645140291E-4     0.001608                 -297.3345441675805
0.0019074058380595825     8.846126477615737E-4     0.001608                 -343.0101577681441
0.0018623328211283014     8.851034739138275E-4     0.001608                 -305.50628519779696
0.0018919083152074121     8.33247183313626E-4      0.001608                 -302.9697074582443
0.0013095382995334567     0.0012014141899881342    0.001608                 210.57561901963092
0.0013631585219791968     0.0012006751939205491    0.0016080000000000003    148.66656988685008
0.0013364631608244674     0.0012509371989547393    0.0016080000000000003    181.68475999978148
0.0013900833832702075     0.001250198202887154     0.0016080000000000003    116.96411027764262
0.0014167787444249369     0.0011999361978529636    0.001608                 89.96404570999852
0.0014437036057159476     0.0012494592068195687    0.001608                 59.5768174706367
0.0014703989668706768     0.0011991972017853783    0.001608                 31.238850981478862
0.0014973238281616875     0.0012487202107519836    0.001608                 2.1513702706085667