% Model:              stripline_filter_simple_decomp_new_mesh.mph
% Version:            COMSOL 6.1.0.252
% Date:               May 4 2023, 12:49
% Dimension:          3
% Nodes:              953
% Expressions:        1
% Description:        Surface
% X                       Y                        Z                        imag(emw.Ey)
0.0019354009108757384     0.0012544340293143602    0.010508                 -3068.256854729018
0.001960632284923057      0.0012182566885032373    0.010508                 -2964.3908404013537
0.0020059757970162712     0.0012767964423167318    0.010508                 -2737.631011463005
0.0020312071710635897     0.001240619101505609     0.010508                 -2630.860763150704
0.0019858636589703753     0.0011820793476921144    0.010508                 -2855.3357365072898
0.0020564385451109076     0.001204441760694486     0.010508000000000002     -2513.094585366698
0.0020110950330176937     0.0011459020068809915    0.010508                 -2743.0690490308025
0.0020816699191582265     0.0011682644198833631    0.010508                 -2392.8867819528223
0.002036326407065012      0.0011097246660698686    0.010508                 -2627.5907779718927
0.002106901293205545      0.0011320870790722402    0.010508                 -2270.237352909076
0.0020615577811123305     0.0010735473252587457    0.010508                 -2508.9009233305596
0.002132132667252863      0.0010959097382611173    0.010508000000000002     -2145.1462982354597
0.002086789155159649      0.0010373699844476228    0.010508                 -2386.999485106804
0.0021573640413001817     0.0010597323974499947    0.010508                 -2017.6136179319742
0.0021120205292069674     0.0010011926436365       0.010508                 -2261.886463300626
0.0021825954153475        0.0010235550566388718    0.010508                 -1888.6462541727687
0.0021372519032542858     9.650153028253771E-4     0.010508                 -2135.2213923972877
0.002076550683156804      0.0012991588553191034    0.010508                 -2401.4712425752036
0.002101782057204122      0.0012629815145079808    0.010508                 -2282.5849157913053
0.002127013431251441      0.0012268041736968579    0.010508                 -2158.639127715401
0.0021522448052987593     0.0011906268328857347    0.010508                 -2032.2517140096272
0.0021774761793460777     0.001154449492074612     0.010508                 -1903.4226746739841
0.0022027075533933957     0.0011182721512634892    0.010508                 -1772.1520097084708
0.0022279389274407146     0.0010820948104523663    0.010508                 -1636.3304611071617
0.0021471255692973364     0.0013215212683214753    0.010508                 -2049.562899414107
0.002172356943344655      0.0012853439275103524    0.010508                 -1918.8418168160338
0.0021975883173919733     0.0012491665866992295    0.010508                 -1788.716418448233
0.0022228196914392917     0.0012129892458881066    0.010508                 -1656.1493944505617
0.00224805106548661       0.0011768119050769837    0.010508                 -1521.1407448230211
0.0022732824395339285     0.0011406345642658608    0.010508                 -1378.820095814698
0.0022177004554378692     0.0013438836813238469    0.010508                 -1681.9059819797164
0.0022429318294851877     0.001307706340512724     0.010508                 -1539.6314662248924
0.002268163203532506      0.001271528999701601     0.010508                 -1403.3264575651933
0.0022933945775798245     0.0012353516588904782    0.010508                 -1264.5798232756247
0.002318625951627143      0.0011991743180793553    0.010508                 -1116.1151582953762
0.002288275341578402      0.0013662460943262185    0.010508                 -1298.5004902720311
0.0023135067156257205     0.0013300687535150956    0.010508                 -1144.9538640178794
0.002338738089673039      0.0012938914127039727    0.010508                 -1002.4692450662828
0.0023639694637203573     0.0012577140718928498    0.010508                 -848.2156485491973
0.0023588502277189344     0.00138860850732859      0.010508                 -899.3464242910512
0.002384081601766253      0.0013524311665174672    0.010508                 -734.8090101949949
0.0024093129758135713     0.0013162538257063443    0.010508                 -575.1215665761611
0.0024294251138594677     0.0014109709203309617    0.010508                 -484.4437840367764
0.002454656487906786      0.0013747935795198388    0.010508                 -296.83291237626736
0.0025                    0.0014333333333333333    0.010508                 -26.896284754603908
0.001901236236607809      0.0012086840128934593    0.010508                 -3207.1965780623304
0.0019264676106551274     0.0011725066720823364    0.010508                 -3093.713586284361
0.0018670715623398796     0.0011629339964725584    0.010508                 -3319.861753414554
0.0018923029363871978     0.0011267566556614355    0.010508000000000002     -3214.884061095322
0.0018329068880719498     0.0011171839800516578    0.010508                 -3424.5246485902444
0.0018581382621192684     0.0010810066392405347    0.010508                 -3328.62374634136
0.0017987422138040204     0.001071433963630757     0.010508                 -3521.1852635894015
0.001823973587851339      0.0010352566228196338    0.010508                 -3434.9326420224725
0.001764577539536091      0.001025683947209856     0.010508                 -3609.843598412025
0.0017898089135834092     9.895066063987331E-4     0.010508000000000002     -3533.8107481386605
0.0017304128652681616     9.799339307889551E-4     0.010508                 -3690.4996530581147
0.0017556442393154798     9.437565899778322E-4     0.010508                 -3625.258064689924
0.001696248191000232      9.341839143680543E-4     0.010508                 -3763.1534275276717
0.0017214795650475504     8.980065735569314E-4     0.010508                 -3721.6118092614133
0.0016620835167323025     8.884338979471534E-4     0.010508                 -3828.8522937078656
0.0019516989847024459     0.0011363293312712135    0.010508                 -2992.6294615047786
0.0019175343104345165     0.0010905793148503126    0.010508                 -3119.2394518321776
0.0018833696361665866     0.0010448292984294118    0.010508                 -3238.4186525946525
0.0018492049618986572     9.99079282008511E-4      0.010508                 -3350.167063792203
0.0018150402876307278     9.533292655876102E-4     0.010508                 -3454.484685424829
0.0017808756133627984     9.075792491667093E-4     0.010508                 -3558.5796124107237
0.0019769303587497643     0.0011001519904600906    0.010508                 -2887.563795190221
0.0019427656844818349     0.0010544019740391897    0.010508                 -3019.6133010340573
0.0019086010102139052     0.001008651957618289     0.010508                 -3144.232017312969
0.0018744363359459758     9.629019411973882E-4     0.010508                 -3261.4199440269567
0.0018402716616780462     9.171519247764873E-4     0.010508                 -3373.917541552571
0.0020021617327970827     0.0010639746496489677    0.010508                 -2778.516587340687
0.001967997058529153      0.001018224633228067     0.010508                 -2916.0056087009607
0.0019338323842612237     9.724746168071662E-4     0.010508                 -3046.0638404963106
0.001899667709993294      9.267246003862653E-4     0.010508                 -3167.625596686956
0.002027393106844401      0.0010277973088378448    0.010508                 -2665.4878379561774
0.0019932284325764717     9.820472924169442E-4     0.010508                 -2808.4163748328892
0.001959063758308542      9.362972759960432E-4     0.010508                 -2939.7037778138774
0.0020526244808917195     9.916199680267222E-4     0.010508                 -2548.4775470366917
0.00201845980662379       9.458699516058212E-4     0.010508                 -2690.1520849333356
0.002077855854939038      9.554426272155992E-4     0.010508                 -2418.970518045331
0.0024999999999999996     9.666666666666667E-4     0.010507999999999997     2.521747315850725E-12
0.0024999999999999996     0.0010249999999999999    0.010507999999999998     3.2822800138364416E-12
0.0024546564879067857     9.664602461865055E-4     0.010507999999999998     -284.45389050393214
0.0024546564879067857     0.0010247935795198388    0.010507999999999998     -286.2450483536906
0.0024999999999999996     0.0010833333333333333    0.010507999999999997     2.7395594572919652E-12
0.0024546564879067857     0.0010831269128531722    0.010507999999999998     -285.94902696079134
0.0024999999999999996     0.0011416666666666667    0.010507999999999997     2.2031178436366825E-12
0.0024546564879067857     0.0011414602461865054    0.010507999999999998     -285.6530055678921
0.0024999999999999996     0.0012000000000000001    0.010507999999999998     1.672955172870587E-12
0.0024546564879067857     0.0011997935795198388    0.010507999999999998     -285.3569841749928
0.0025                    0.0012583333333333333    0.010508                 1.14907144499368E-12
0.002454656487906786      0.0012581269128531722    0.010508                 -285.0609627820934
0.0024999999999999996     0.0013166666666666667    0.010507999999999998     6.314666600059668E-13
0.0024546564879067857     0.0013164602461865054    0.010507999999999998     -284.76494138919423
0.0025                    0.001375                 0.010508                 1.2014081790744223E-13
0.0024093129758135713     9.662538257063443E-4     0.010507999999999997     -564.3481661368087
0.0024093129758135713     0.0010245871590396777    0.010507999999999997     -567.0585661298163
0.0024093129758135713     0.0010829204923730109    0.010508                 -566.4665233440172
0.0024093129758135713     0.0011412538257063443    0.010508                 -565.874480558218
0.0024093129758135713     0.0011995871590396777    0.010508                 -565.2824377724188
0.0024093129758135713     0.001257920492373011     0.010508                 -564.6903949866196
0.002363969463720357      9.660474052261832E-4     0.010507999999999997     -839.6828268986272
0.002363969463720357      0.0010243807385595164    0.010507999999999998     -842.4405533283734
0.002363969463720357      0.0010827140718928498    0.010507999999999998     -841.5524891496746
0.002363969463720357      0.0011410474052261832    0.010507999999999998     -840.6644249709756
0.0023639694637203573     0.0011993807385595164    0.010508                 -839.7763607922767
0.002318625951627143      9.658409847460218E-4     0.010507999999999998     -1110.4578727893877
0.002318625951627143      0.0010241743180793553    0.010507999999999998     -1112.3910099493623
0.002318625951627143      0.0010825076514126887    0.010508                 -1111.2069243777637
0.002318625951627143      0.0011408409847460219    0.010508                 -1110.0228388061648
0.0022732824395339285     9.656345642658606E-4     0.010508                 -1376.6733038090902
0.0022732824395339285     0.001023967897599194     0.010508                 -1376.9099359927832
0.0022732824395339285     0.0010823012309325274    0.010508                 -1375.4298290282845
0.002227938927440714      9.654281437856994E-4     0.010507999999999998     -1638.3291199577343
0.002227938927440714      0.0010237614771190329    0.010507999999999998     -1635.9973314586352
0.0021825954153475        9.652217233055383E-4     0.010508                 -1895.4253212353206
0.0019434757970162712     0.001335129775650065     0.010508                 -3013.1523004657
0.002014050683156804      0.0013574921886524366    0.010508                 -2694.540585233247
0.0020846255692973364     0.0013798546016548082    0.010508000000000002     -2362.3770497957403
0.002155200455437869      0.0014022170146571799    0.010508                 -2014.1836174275156
0.002225775341578402      0.0014245794276595515    0.010508                 -1649.9602881285732
0.002296350227718935      0.0014469418406619235    0.010508000000000002     -1269.7070618989128
0.0023669251138594676     0.0014693042536642951    0.010508                 -873.423938738534
0.0024375000000000004     0.0014916666666666667    0.010508                 -428.9335905267641
0.001951550683156804      0.00141582552198577      0.010508                 -2978.346747595646
0.0020221255692973363     0.0014381879349881417    0.010508                 -2659.7703228001506
0.002092700455437869      0.0014605503479905135    0.010508                 -2325.666552633238
0.002163275341578402      0.001482912760992885     0.010508                 -1975.5328855356088
0.0022338502277189348     0.0015052751739952567    0.010508                 -1609.3693215072608
0.0023044251138594676     0.0015276375869976283    0.010508                 -1227.1758605481957
0.002375                  0.00155                  0.010508                 -805.5167006457555
0.0019596255692973363     0.001496521268321475     0.010508                 -2943.2892053005726
0.002030200455437869      0.0015188836813238467    0.010508                 -2624.76592032188
0.002100775341578402      0.0015412460943262183    0.010508                 -2288.7219154255636
0.0021713502277189347     0.00156360850732859      0.010508                 -1936.648013598529
0.0022419251138594675     0.0015859709203309615    0.010508                 -1568.5442148407765
0.0023125000000000003     0.0016083333333333331    0.010508                 -1170.1922139166652
0.001967700455437869      0.00157721701465718      0.010508                 -2907.979673580482
0.002038275341578402      0.0015995794276595517    0.010508                 -2589.527377798438
0.0021088502277189346     0.0016219418406619233    0.010508                 -2251.5431381727158
0.0021794251138594675     0.001644304253664295     0.010508                 -1897.5290016162762
0.0022500000000000003     0.0016666666666666666    0.010508                 -1522.9601303394938
0.0019757753415784018     0.0016579127609928847    0.010508                 -2872.4181524353735
0.0020463502277189346     0.0016802751739952565    0.010508                 -2554.054695229822
0.0021169251138594674     0.0017026375869976281    0.010508                 -2214.1302208746956
0.0021875                 0.0017249999999999998    0.010508                 -1863.8204499142412
0.0019838502277189345     0.00173860850732859      0.010508                 -2836.604641865246
0.0020544251138594673     0.0017609709203309616    0.010508                 -2518.3478726160347
0.002125                  0.0017833333333333332    0.010508                 -2192.773172640907
0.0019919251138594673     0.001819304253664295     0.010508                 -2800.5391418701006
0.0020625                 0.0018416666666666666    0.010508                 -2509.8182985194917
0.002                     0.0018999999999999998    0.010508                 -2818.603530776504
0.0025                    0.0019                   0.010508                 0
0.0024375000000000004     0.0018999999999999998    0.010508                 -401.7849006206914
0.0025                    0.0018416666666666666    0.010508                 0
0.0024375                 0.0018416666666666666    0.010508                 -401.06652373289114
0.002375                  0.0019                   0.010508                 -790.7014212867005
0.002375                  0.0018416666666666666    0.010508000000000002     -789.2646675111001
0.0023125000000000003     0.0018999999999999998    0.010508                 -1166.749561998027
0.0023125                 0.0018416666666666666    0.010508                 -1164.5944313346267
0.0022500000000000003     0.0018999999999999998    0.010508                 -1529.9293227546714
0.00225                   0.0018416666666666666    0.010508                 -1527.055815203471
0.0021875                 0.0018999999999999998    0.010508                 -1880.2407035566334
0.0021874999999999998     0.0018416666666666664    0.010508000000000002     -1876.6488191176331
0.002125                  0.0018999999999999998    0.010508                 -2217.6837044039135
0.002125                  0.0018416666666666666    0.010508                 -2213.373443077113
0.0020625                 0.0019                   0.010508                 -2542.2583252965114
0.0025                    0.0017833333333333334    0.010508                 0
0.0024375                 0.0017833333333333334    0.010508                 -400.34814684509104
0.002375                  0.0017833333333333334    0.010508                 -787.8279137354998
0.0023125                 0.0017833333333333334    0.010508                 -1162.4393006712264
0.0022500000000000003     0.0017833333333333332    0.010508                 -1524.1823076522705
0.0021875                 0.0017833333333333332    0.010508                 -1873.0569346786324
0.0025                    0.001725                 0.010508                 0
0.0024375                 0.001725                 0.010508                 -399.62976995729093
0.002375                  0.001725                 0.010508                 -786.3911599598995
0.0023125                 0.001725                 0.010508                 -1160.2841700078259
0.0022500000000000003     0.001725                 0.010508                 -1521.30880010107
0.0025                    0.0016666666666666666    0.010508                 0
0.0024375                 0.0016666666666666666    0.010508                 -398.9113930694908
0.0023750000000000004     0.0016666666666666666    0.010508                 -784.9544061842992
0.0023125000000000003     0.0016666666666666666    0.010508                 -1158.1290393444253
0.0025                    0.0016083333333333334    0.010508                 0
0.0024375                 0.0016083333333333334    0.010508                 -398.19301618169067
0.0023750000000000004     0.0016083333333333331    0.010508                 -783.5176524086991
0.0025                    0.00155                  0.010508                 0
0.0024375                 0.00155                  0.010508                 -397.4746392938905
0.0025                    0.0014916666666666667    0.010508                 0
0.0021200954153475        9.06888389972205E-4      0.010508                 -2212.0276191060166
0.0020606993670322523     8.97315714362427E-4      0.010508                 -2495.227471678563
0.0020013033187170045     8.877430387526491E-4     0.010508000000000002     -2762.160147460211
0.0019419072704017564     8.781703631428712E-4     0.010508                 -3008.124437359709
0.0018825112220865086     8.685976875330932E-4     0.010508                 -3233.120341377057
0.0018231151737712603     8.590250119233152E-4     0.010508000000000002     -3437.147859512251
0.0017637191254560125     8.494523363135372E-4     0.010508                 -3620.206991765297
0.0017043230771407647     8.398796607037593E-4     0.010508                 -3765.3956677848973
0.0021029389274407144     8.487614771190328E-4     0.010508                 -2298.421996765341
0.0020435428791254666     8.391888015092548E-4     0.010508000000000002     -2578.2421348401276
0.0019841468308102184     8.29616125899477E-4      0.010508                 -2839.104237475026
0.0019247507824949705     8.20043450289699E-4      0.010508                 -3078.9979542277733
0.0018653547341797227     8.10470774679921E-4      0.010508                 -3297.9232850983685
0.0018059586858644747     8.00898099070143E-4      0.010508000000000002     -3495.880230086814
0.0017465626375492269     7.91325423460365E-4      0.010508                 -3665.004783284581
0.002085782439533929      7.906345642658607E-4     0.010508                 -2383.3235446159597
0.0020263863912186805     7.810618886560829E-4     0.010508                 -2659.4993109931265
0.001966990342903433      7.714892130463049E-4     0.010508                 -2914.2908404812742
0.0019075942945881849     7.619165374365269E-4     0.010508                 -3148.1139840872706
0.001848198246272937      7.523438618267489E-4     0.010508                 -3360.968741811116
0.001788802197957689      7.427711862169709E-4     0.010508                 -3553.0251526055486
0.0020686259516271427     7.325076514126886E-4     0.010508                 -2466.7322626578734
0.0020092299033118953     7.229349758029106E-4     0.010508                 -2738.999000137561
0.001949833854996647      7.133623001931327E-4     0.010508                 -2987.7199564789576
0.0018904378066813992     7.037896245833547E-4     0.010508                 -3215.472526938203
0.0018310417583661514     6.942169489735767E-4     0.010508                 -3429.456775747798
0.0020514694637203575     6.743807385595165E-4     0.010508                 -2548.648150891083
0.001992073415405109      6.648080629497385E-4     0.010508                 -2816.7412022734284
0.0019326773670898614     6.552353873399606E-4     0.010508                 -3059.391585468074
0.0018732813187746136     6.456627117301826E-4     0.010508                 -3294.2996527113314
0.0020343129758135714     6.162538257063444E-4     0.010508                 -2629.071209315586
0.0019749169274983235     6.066811500965664E-4     0.010508                 -2892.7259174007295
0.0019155208791830757     5.971084744867885E-4     0.010508                 -3147.553783496146
0.0020171564879067857     5.581269128531722E-4     0.010508000000000002     -2708.001437931385
0.001957760439591538      5.485542372433943E-4     0.010508000000000002     -2989.219168102245
0.002                     5.000000000000001E-4     0.010508000000000002     -2805.151149847707
0.0015                    0.0018999999999999996    0.010507999999999998     -3962.6584333514766
0.0015086518436101498     0.001837649416529337     0.010507999999999998     -3923.9836596689984
0.0015625                 0.0018999999999999998    0.010507999999999998     -3891.4604113071673
0.0015711518436101499     0.0018376494165293369    0.010508                 -3887.359479699204
0.0015173036872202996     0.0017752988330586744    0.010508                 -3921.6480096782007
0.0015798036872202994     0.0017752988330586744    0.010507999999999998     -3882.518050571357
0.0015259555308304489     0.001712948249588012     0.010507999999999998     -3918.6196855439075
0.0015884555308304492     0.0017129482495880119    0.010507999999999998     -3876.9361239236264
0.0015346073744405987     0.0016505976661173494    0.010508                 -3914.898687266116
0.001597107374440599      0.0016505976661173494    0.010508                 -3870.6136997560134
0.0015432592180507484     0.001588247082646687     0.010508                 -3910.4850148448295
0.0016057592180507483     0.001588247082646687     0.010508                 -3863.550778068516
0.0015519110616608982     0.0015258964991760246    0.010507999999999998     -3905.3786682800455
0.001614411061660898      0.0015258964991760244    0.010508                 -3855.747358861136
0.0015605629052710477     0.001463545915705362     0.010508                 -3899.579647571765
0.0016230629052710478     0.001463545915705362     0.010508                 -3885.808416864297
0.0015692147488811975     0.0014011953322346994    0.010508                 -3940.3243579385453
0.0016250000000000001     0.0018999999999999996    0.010508                 -3836.3918520603484
0.0016336518436101497     0.001837649416529337     0.010508                 -3827.592660174474
0.0016423036872202995     0.0017752988330586746    0.010508                 -3818.0529707687156
0.001650955530830449      0.001712948249588012     0.010508                 -3807.7727838430746
0.0016596073744405988     0.0016505976661173496    0.010508                 -3796.7520993975504
0.0016682592180507483     0.001588247082646687     0.010508                 -3784.9909174321424
0.001676911061660898      0.0015258964991760246    0.010508                 -3792.957424301623
0.0016875                 0.0018999999999999998    0.010507999999999998     -3752.0864240226865
0.0016961518436101497     0.0018376494165293373    0.010507999999999998     -3738.5889718588996
0.0017048036872202995     0.0017752988330586748    0.010508                 -3724.3510221752317
0.001713455530830449      0.0017129482495880123    0.010507999999999998     -3709.372574971679
0.0017221073744405988     0.0016505976661173496    0.010508                 -3693.653630248243
0.0017307592180507484     0.001588247082646687     0.010508                 -3680.4111824569227
0.00175                   0.0018999999999999998    0.010508                 -3638.544127194181
0.0017586518436101498     0.001837649416529337     0.010508                 -3620.348414752484
0.0017673036872202993     0.0017752988330586746    0.010508                 -3601.4122047909023
0.0017759555308304491     0.0017129482495880123    0.010508                 -3581.7354973094402
0.0017846073744405989     0.0016505976661173496    0.010508                 -3548.169691330195
0.0018125                 0.0018999999999999996    0.010508                 -3495.7649615748305
0.0018211518436101496     0.001837649416529337     0.010508                 -3472.870988855223
0.0018298036872202994     0.0017752988330586746    0.010508                 -3449.2365186157313
0.0018384555308304492     0.001712948249588012     0.010508                 -3396.2329509214405
0.001875                  0.0018999999999999998    0.010507999999999998     -3323.7489271646373
0.0018836518436101497     0.0018376494165293373    0.010508                 -3296.156694167119
0.0018923036872202995     0.0017752988330586748    0.010508                 -3224.600961230659
0.0019375                 0.0018999999999999998    0.010508                 -3122.496023963601
0.0019461518436101497     0.0018376494165293373    0.010508                 -3033.27372225785
0.001889627640626421      0.0012727791921794025    0.010508                 -3241.4665792836977
0.0018977025267669537     0.0013534749385151076    0.010508                 -3188.834764301281
0.0019057774129074862     0.0014341706848508126    0.010508000000000002     -3154.0938862344806
0.001913852299048019      0.0015148664311865174    0.010508                 -3119.0831693628184
0.0019219271851885517     0.0015955621775222222    0.010508                 -3083.8026136862914
0.0019300020713290845     0.0016762579238579272    0.010508000000000002     -3048.252219204901
0.001938076957469617      0.0017569536701936323    0.010508                 -3012.4319859186476
0.0018438543703771034     0.001291124355044445     0.010508                 -3389.186801844932
0.001851929256517636      0.00137182010138015      0.010508                 -3347.5797373461464
0.0018600041426581687     0.0014525158477158547    0.010508                 -3314.8790592489645
0.0018680790287987014     0.0015332115940515597    0.010508                 -3281.9085423469187
0.001876153914939234      0.0016139073403872647    0.010508                 -3248.6681866400095
0.0018842288010797667     0.0016946030867229698    0.010508                 -3215.157992128237
0.0017980811001277854     0.0013094695179094876    0.010508                 -3521.933388093976
0.0018061559862683181     0.0013901652642451924    0.010508                 -3491.865296325961
0.001814230872408851      0.0014708610105808972    0.010508                 -3461.2048181983973
0.0018223057585493837     0.0015515567569166023    0.010508                 -3430.2745012659693
0.0018303806446899164     0.0016322525032523073    0.010508                 -3399.074345528678
0.0017523078298784679     0.0013278146807745297    0.010508                 -3639.70633803083
0.0017603827160190006     0.0014085104271102347    0.010508                 -3621.6914412407264
0.0017684576021595334     0.0014892061734459398    0.010508                 -3593.0711630827795
0.0017765324883000661     0.0015699019197816448    0.010508                 -3564.18104611997
0.0017065345596291503     0.0013461598436395722    0.010508                 -3742.5056516554937
0.001714609445769683      0.001426855589975277     0.010508                 -3737.0581720904406
0.0017226843319102156     0.001507551336310982     0.010508                 -3710.478093902112
0.0016607612893798328     0.0013645050065046148    0.010508                 -3830.3313289679672
0.0016688361755203653     0.0014452007528403198    0.010508                 -3837.965488875106
0.001614988019130515      0.0013828501693696571    0.010508                 -3903.183369968251
0.0018554629663584915     0.0012270291757585016    0.010508                 -3366.2770333304543
0.0018096896961091737     0.0012453743386235442    0.010508000000000002     -3493.4892215058862
0.0017639164258598562     0.0012637195014885865    0.010508                 -3605.213551121987
0.0017181431556105387     0.001282064664353629     0.010508                 -3701.4500221787575
0.0016723698853612207     0.0013004098272186714    0.010508000000000002     -3782.1986346761996
0.0016265966151119032     0.001318754990083714     0.010508                 -3847.4593886143102
0.0015808233448625856     0.0013371001529487562    0.010508                 -3908.2586834078356
0.0018212982920905619     0.001181279159337601     0.010508                 -3464.352940868588
0.0017755250218412443     0.0011996243222026433    0.010508                 -3580.0416451722303
0.0017297517515919266     0.0012179694850676858    0.010508                 -3680.2424909165416
0.001683978481342609      0.0012363146479327282    0.010508                 -3764.955478101523
0.0016382052110932913     0.0012546598107977705    0.010508                 -3834.180606727175
0.0015924319408439737     0.001273004973662813     0.010508                 -3896.4078388249563
0.0017871336178226322     0.0011355291429167       0.010508                 -3553.85507761858