% Model:              stripline_filter_simple_decomp_new_mesh.mph
% Version:            COMSOL 6.1.0.252
% Date:               May 4 2023, 12:53
% Dimension:          3
% Nodes:              953
% Expressions:        1
% Description:        Surface
% X                       Y                        Z                        real(emw.Ez)
0.0019354009108757384     0.0012544340293143602    0.010508                 -23.053108664991804
0.001960632284923057      0.0012182566885032373    0.010508                 -83.4963118347483
0.0020059757970162712     0.0012767964423167318    0.010508                 -21.945897629467098
0.0020312071710635897     0.001240619101505609     0.010508                 -37.892317602389625
0.0019858636589703753     0.0011820793476921144    0.010508                 -86.16580443455297
0.0020564385451109076     0.001204441760694486     0.010508000000000002     -40.52454380328084
0.0020110950330176937     0.0011459020068809915    0.010508                 -82.11468340966974
0.0020816699191582265     0.0011682644198833631    0.010508                 -36.0254234189308
0.002036326407065012      0.0011097246660698686    0.010508                 -71.34294876009858
0.002106901293205545      0.0011320870790722402    0.010508                 -24.394956449339603
0.0020615577811123305     0.0010735473252587457    0.010508                 -53.85060048583807
0.002132132667252863      0.0010959097382611173    0.010508000000000002     -5.633142894507657
0.002086789155159649      0.0010373699844476228    0.010508                 -29.63763858688941
0.0021573640413001817     0.0010597323974499947    0.010508                 20.260017245566047
0.0021120205292069674     0.0010011926436365       0.010508                 1.2959369367482907
0.0021825954153475        0.0010235550566388718    0.010508                 58.3498109108011
0.0021372519032542858     9.650153028253771E-4     0.010508                 -13.384849597691053
0.002076550683156804      0.0012991588553191034    0.010508                 24.22152225804294
0.002101782057204122      0.0012629815145079808    0.010508                 19.844386239193106
0.002127013431251441      0.0012268041736968579    0.010508                 25.659580685622345
0.0021522448052987593     0.0011906268328857347    0.010508                 38.6061217172942
0.0021774761793460777     0.001154449492074612     0.010508                 58.68400933420568
0.0022027075533933957     0.0011182721512634892    0.010508                 85.89324353635962
0.0022279389274407146     0.0010820948104523663    0.010508                 132.19756121149126
0.0021471255692973364     0.0013215212683214753    0.010508                 56.87946864907994
0.002172356943344655      0.0012853439275103524    0.010508                 63.91075839066771
0.0021975883173919733     0.0012491665866992295    0.010508                 78.17337348441882
0.0022228196914392917     0.0012129892458881066    0.010508                 99.5673351634106
0.00224805106548661       0.0011768119050769837    0.010508                 128.09264342764396
0.0022732824395339285     0.0011406345642658608    0.010508                 181.12890619849466
0.0022177004554378692     0.0013438836813238469    0.010508                 76.02794154364352
0.0022429318294851877     0.001307706340512724     0.010508                 94.30679885203533
0.002268163203532506      0.001271528999701601     0.010508                 117.0168345931074
0.0022933945775798245     0.0012353516588904782    0.010508                 146.85821691942039
0.002318625951627143      0.0011991743180793553    0.010508                 205.14384587181007
0.002288275341578402      0.0013662460943262185    0.010508                 81.66694094173405
0.0023135067156257205     0.0013300687535150956    0.010508                 111.0325076232951
0.002338738089673039      0.0012938914127039727    0.010508                 142.18996401168843
0.0023639694637203573     0.0012577140718928498    0.010508                 204.24238023143724
0.0023588502277189344     0.00138860850732859      0.010508                 73.7964668433514
0.002384081601766253      0.0013524311665174672    0.010508                 114.08788470444804
0.0024093129758135713     0.0013162538257063443    0.010508                 178.42450927737755
0.0024294251138594677     0.0014109709203309617    0.010508                 52.416519248495305
0.002454656487906786      0.0013747935795198388    0.010508                 127.69023300962951
0.0025                    0.0014333333333333333    0.010508                 -12.016938714396254
0.001901236236607809      0.0012086840128934593    0.010508                 -17.991969292526804
0.0019264676106551274     0.0011725066720823364    0.010508                 -23.662709381305376
0.0018670715623398796     0.0011629339964725584    0.010508                 6.7385293225164276
0.0018923029363871978     0.0011267566556614355    0.010508000000000002     2.8910395257942128
0.0018329068880719498     0.0011171839800516578    0.010508                 23.919647582739202
0.0018581382621192684     0.0010810066392405347    0.010508                 21.96797618588198
0.0017987422138040204     0.001071433963630757     0.010508                 33.55138548814088
0.001823973587851339      0.0010352566228196338    0.010508                 33.5681005989577
0.001764577539536091      0.001025683947209856     0.010508                 35.633743038721235
0.0017898089135834092     9.895066063987331E-4     0.010508000000000002     37.69141276502137
0.0017304128652681616     9.799339307889551E-4     0.010508                 30.166720234481176
0.0017556442393154798     9.437565899778322E-4     0.010508                 34.3379126840739
0.001696248191000232      9.341839143680543E-4     0.010508                 17.150317075419636
0.0017214795650475504     8.980065735569314E-4     0.010508                 16.008941316664277
0.0016620835167323025     8.884338979471534E-4     0.010508                 7.836882455015451
0.0019516989847024459     0.0011363293312712135    0.010508                 -17.350476356499712
0.0019175343104345165     0.0010905793148503126    0.010508                 9.774843926803442
0.0018833696361665866     0.0010448292984294118    0.010508                 29.423351963094092
0.0018492049618986572     9.99079282008511E-4      0.010508                 41.595047752373375
0.0018150402876307278     9.533292655876102E-4     0.010508                 46.28993129464061
0.0017808756133627984     9.075792491667093E-4     0.010508                 19.63668418744419
0.0019769303587497643     0.0011001519904600906    0.010508                 -4.728362667558827
0.0019427656844818349     0.0010544019740391897    0.010508                 22.968528991947778
0.0019086010102139052     0.001008651957618289     0.010508                 43.18860840444222
0.0018744363359459758     9.629019411973882E-4     0.010508                 55.93187556992507
0.0018402716616780462     9.171519247764873E-4     0.010508                 20.016707952697516
0.0020021617327970827     0.0010639746496489677    0.010508                 14.203631685517848
0.001967997058529153      0.001018224633228067     0.010508                 42.47209472122813
0.0019338323842612237     9.724746168071662E-4     0.010508                 63.26374550992659
0.001899667709993294      9.267246003862653E-4     0.010508                 17.149012612421302
0.002027393106844401      0.0010277973088378448    0.010508                 39.44550670273088
0.0019932284325764717     9.820472924169442E-4     0.010508                 68.28554111464427
0.001959063758308542      9.362972759960432E-4     0.010508                 11.033598166619413
0.0020526244808917195     9.916199680267222E-4     0.010508                 70.9972623840788
0.00201845980662379       9.458699516058212E-4     0.010508                 1.6704646152886653
0.002077855854939038      9.554426272155992E-4     0.010508                 -10.9403880415706
0.0024999999999999996     9.666666666666667E-4     0.010507999999999997     188.9158834168998
0.0024999999999999996     0.0010249999999999999    0.010507999999999998     463.2901603370934
0.0024546564879067857     9.664602461865055E-4     0.010507999999999998     165.21392957916106
0.0024546564879067857     0.0010247935795198388    0.010507999999999998     408.2255056552071
0.0024999999999999996     0.0010833333333333333    0.010507999999999997     409.07596010616345
0.0024546564879067857     0.0010831269128531722    0.010507999999999998     366.6404783089564
0.0024999999999999996     0.0011416666666666667    0.010507999999999997     354.407906164971
0.0024546564879067857     0.0011414602461865054    0.010507999999999998     324.60159725244296
0.0024999999999999996     0.0012000000000000001    0.010507999999999998     299.28599851351663
0.0024546564879067857     0.0011997935795198388    0.010507999999999998     282.10886248566794
0.0025                    0.0012583333333333333    0.010508                 243.71023715179933
0.002454656487906786      0.0012581269128531722    0.010508                 239.16227400862945
0.0024999999999999996     0.0013166666666666667    0.010507999999999998     187.68062207981876
0.0024546564879067857     0.0013164602461865054    0.010507999999999998     195.76183182132866
0.0025                    0.001375                 0.010508                 131.1971532975765
0.0024093129758135713     9.662538257063443E-4     0.010507999999999997     141.26533661575627
0.0024093129758135713     0.0010245871590396777    0.010507999999999997     352.4740662250736
0.0024093129758135713     0.0010829204923730109    0.010508                 323.51821176350296
0.0024093129758135713     0.0011412538257063443    0.010508                 294.10850359166903
0.0024093129758135713     0.0011995871590396777    0.010508                 264.24494170957246
0.0024093129758135713     0.001257920492373011     0.010508                 233.92752611721363
0.002363969463720357      9.660474052261832E-4     0.010507999999999997     117.07010452668419
0.002363969463720357      0.0010243807385595164    0.010507999999999998     296.0358420466955
0.002363969463720357      0.0010827140718928498    0.010507999999999998     279.7091604698037
0.002363969463720357      0.0011410474052261832    0.010507999999999998     262.9286251826486
0.0023639694637203573     0.0011993807385595164    0.010508                 245.69423618523183
0.002318625951627143      9.658409847460218E-4     0.010507999999999998     92.62823331194681
0.002318625951627143      0.0010241743180793553    0.010507999999999998     238.91083312007072
0.002318625951627143      0.0010825076514126887    0.010508                 235.21332442785823
0.002318625951627143      0.0011408409847460219    0.010508                 231.06196202538285
0.0022732824395339285     9.656345642658606E-4     0.010508                 67.93972297154244
0.0022732824395339285     0.001023967897599194     0.010508                 181.09903944520008
0.0022732824395339285     0.0010823012309325274    0.010508                 190.03070363766682
0.002227938927440714      9.654281437856994E-4     0.010507999999999998     43.00457350547259
0.002227938927440714      0.0010237614771190329    0.010507999999999998     122.60046102208366
0.0021825954153475        9.652217233055383E-4     0.010508                 17.82278491373566
0.0019434757970162712     0.001335129775650065     0.010508                 48.25716539185706
0.002014050683156804      0.0013574921886524366    0.010508                 4.19726992859006
0.0020846255692973364     0.0013798546016548082    0.010508000000000002     23.033747068292726
0.002155200455437869      0.0014022170146571799    0.010508                 28.521608905156306
0.002225775341578402      0.0014245794276595515    0.010508                 20.66085543918058
0.002296350227718935      0.0014469418406619235    0.010508000000000002     -0.5485133296336073
0.0023669251138594676     0.0014693042536642951    0.010508                 -35.106497401286845
0.0024375000000000004     0.0014916666666666667    0.010508                 -154.6161195548013
0.001951550683156804      0.00141582552198577      0.010508                 54.25344366899458
0.0020221255692973363     0.0014381879349881417    0.010508                 19.2471245694054
0.002092700455437869      0.0014605503479905135    0.010508                 13.874522268051692
0.002163275341578402      0.001482912760992885     0.010508                 -4.846695336141124
0.0022338502277189348     0.0015052751739952567    0.010508                 -36.91652824317339
0.0023044251138594676     0.0015276375869976283    0.010508                 -82.33497645304374
0.002375                  0.00155                  0.010508                 -200.50805799086154
0.0019596255692973363     0.001496521268321475     0.010508                 56.17209128164251
0.002030200455437869      0.0015188836813238467    0.010508                 29.386513479769064
0.002100775341578402      0.0015412460943262183    0.010508                 -0.19516826264180054
0.0021713502277189347     0.00156360850732859      0.010508                 -43.12546530789132
0.0022419251138594675     0.0015859709203309615    0.010508                 -99.40437765597903
0.0023125000000000003     0.0016083333333333331    0.010508                 -213.74924416516794
0.001967700455437869      0.00157721701465718      0.010508                 54.01310822979724
0.002038275341578402      0.0015995794276595517    0.010508                 34.615436659678835
0.0021088502277189346     0.0016219418406619233    0.010508                 -19.175324523787594
0.0021794251138594675     0.001644304253664295     0.010508                 -86.31470101009313
0.0022500000000000003     0.0016666666666666666    0.010508                 -194.3396780777207
0.0019757753415784018     0.0016579127609928847    0.010508                 47.77649451345957
0.0020463502277189346     0.0016802751739952565    0.010508                 34.933894109136645
0.0021169251138594674     0.0017026375869976281    0.010508                 -43.06594651538603
0.0021875                 0.0017249999999999998    0.010508                 -142.27935972851898
0.0019838502277189345     0.00173860850732859      0.010508                 37.462250132631425
0.0020544251138594673     0.0017609709203309616    0.010508                 30.34188582814295
0.002125                  0.0017833333333333332    0.010508                 -57.5682891175625
0.0019919251138594673     0.001819304253664295     0.010508                 23.070375087310282
0.0020625                 0.0018416666666666666    0.010508                 59.793533755148744
0.002                     0.0018999999999999998    0.010508                 52.27694778778687
0.0025                    0.0019                   0.010508                 -657.7213863174411
0.0024375000000000004     0.0018999999999999998    0.010508                 -545.6939279751191
0.0025                    0.0018416666666666666    0.010508                 -598.2232165912127
0.0024375                 0.0018416666666666666    0.010508                 -502.66405644035785
0.002375                  0.0019                   0.010508                 -432.33043385999554
0.002375                  0.0018416666666666666    0.010508000000000002     -405.7688605167009
0.0023125000000000003     0.0018999999999999998    0.010508                 -317.6309039720718
0.0023125                 0.0018416666666666666    0.010508                 -307.53762882024375
0.0022500000000000003     0.0018999999999999998    0.010508                 -201.59533831134377
0.00225                   0.0018416666666666666    0.010508                 -207.97036135098642
0.0021875                 0.0018999999999999998    0.010508                 -84.22373687781783
0.0021874999999999998     0.0018416666666666664    0.010508000000000002     -107.06705810892345
0.002125                  0.0018999999999999998    0.010508                 34.48390032851148
0.002125                  0.0018416666666666666    0.010508                 -4.827719094064605
0.0020625                 0.0019                   0.010508                 154.5275733076419
0.0025                    0.0017833333333333334    0.010508                 -537.8552523460335
0.0024375                 0.0017833333333333334    0.010508                 -458.7643903866458
0.002375                  0.0017833333333333334    0.010508                 -378.3374926544566
0.0023125                 0.0017833333333333334    0.010508                 -296.5745591494674
0.0022500000000000003     0.0017833333333333332    0.010508                 -213.4755898716753
0.0021875                 0.0017833333333333332    0.010508                 -129.04058482108258
0.0025                    0.001725                 0.010508                 -476.617493581904
0.0024375                 0.001725                 0.010508                 -413.99492981398305
0.002375                  0.001725                 0.010508                 -350.0363302732612
0.0023125                 0.001725                 0.010508                 -284.74169495973933
0.0022500000000000003     0.001725                 0.010508                 -218.11102387341498
0.0025                    0.0016666666666666666    0.010508                 -414.50994029882236
0.0024375                 0.0016666666666666666    0.010508                 -368.3556747223695
0.0023750000000000004     0.0016666666666666666    0.010508                 -320.8653733731155
0.0023125000000000003     0.0016666666666666666    0.010508                 -272.0390362510593
0.0025                    0.0016083333333333334    0.010508                 -351.53259249679104
0.0024375                 0.0016083333333333334    0.010508                 -321.8466251118048
0.0023750000000000004     0.0016083333333333331    0.010508                 -290.8246219540183
0.0025                    0.00155                  0.010508                 -287.685450175808
0.0024375                 0.00155                  0.010508                 -274.4677809822897
0.0025                    0.0014916666666666667    0.010508                 -222.96851333587335
0.0021200954153475        9.06888389972205E-4      0.010508                 -36.79289785073189
0.0020606993670322523     8.97315714362427E-4      0.010508                 -86.23060553231977
0.0020013033187170045     8.877430387526491E-4     0.010508000000000002     -63.00894198442484
0.0019419072704017564     8.781703631428712E-4     0.010508                 -43.972642312302696
0.0018825112220865086     8.685976875330932E-4     0.010508                 -29.121706515953974
0.0018231151737712603     8.590250119233152E-4     0.010508000000000002     -18.456134595376625
0.0017637191254560125     8.494523363135372E-4     0.010508                 -11.975926550571899
0.0017043230771407647     8.398796607037593E-4     0.010508                 -3.3447571698152103
0.0021029389274407144     8.487614771190328E-4     0.010508                 -9.443834364417512
0.0020435428791254666     8.391888015092548E-4     0.010508000000000002     -48.55211407621084
0.0019841468308102184     8.29616125899477E-4      0.010508                 -35.780522851505566
0.0019247507824949705     8.20043450289699E-4      0.010508                 -27.194295502574164
0.0018653547341797227     8.10470774679921E-4      0.010508                 -22.793432029413907
0.0018059586858644747     8.00898099070143E-4      0.010508000000000002     -22.577932432027012
0.0017465626375492269     7.91325423460365E-4      0.010508                 -23.795736860027546
0.002085782439533929      7.906345642658607E-4     0.010508                 10.548158384464159
0.0020263863912186805     7.810618886560829E-4     0.010508                 -17.704200444378785
0.001966990342903433      7.714892130463049E-4     0.010508                 -15.382681542863907
0.0019075942945881849     7.619165374365269E-4     0.010508                 -17.246526517121687
0.001848198246272937      7.523438618267489E-4     0.010508                 -23.295735367151536
0.001788802197957689      7.427711862169709E-4     0.010508                 -34.182908754968594
0.0020686259516271427     7.325076514126886E-4     0.010508                 23.183080395912157
0.0020092299033118953     7.229349758029106E-4     0.010508                 6.313135363176116
0.001949833854996647      7.133623001931327E-4     0.010508                 -1.8154180584990627
0.0018904378066813992     7.037896245833547E-4     0.010508                 -14.129335355946637
0.0018310417583661514     6.942169489735767E-4     0.010508                 -34.506272854638496
0.0020514694637203575     6.743807385595165E-4     0.010508                 28.460931669928414
0.001992073415405109      6.648080629497385E-4     0.010508                 23.499893346453746
0.0019326773670898614     6.552353873399606E-4     0.010508                 4.921267601589079
0.0018732813187746136     6.456627117301826E-4     0.010508                 -24.765829159036002
0.0020343129758135714     6.162538257063444E-4     0.010508                 26.381712206509633
0.0019749169274983235     6.066811500965664E-4     0.010508                 33.85607350545524
0.0019155208791830757     5.971084744867885E-4     0.010508                 -4.96157766816259
0.0020171564879067857     5.581269128531722E-4     0.010508000000000002     16.945422005660305
0.001957760439591538      5.485542372433943E-4     0.010508000000000002     24.906481617982564
0.002                     5.000000000000001E-4     0.010508000000000002     16.720213448087822
0.0015                    0.0018999999999999996    0.010507999999999998     -64.35809223818069
0.0015086518436101498     0.001837649416529337     0.010507999999999998     -82.62860404085791
0.0015625                 0.0018999999999999998    0.010507999999999998     -159.92465894753514
0.0015711518436101499     0.0018376494165293369    0.010508                 -140.5268813585053
0.0015173036872202996     0.0017752988330586744    0.010508                 -67.91644619050612
0.0015798036872202994     0.0017752988330586744    0.010507999999999998     -121.30991988881897
0.0015259555308304489     0.001712948249588012     0.010507999999999998     -53.149492892219314
0.0015884555308304492     0.0017129482495880119    0.010507999999999998     -102.27377453846987
0.0015346073744405987     0.0016505976661173494    0.010508                 -38.3277441459968
0.001597107374440599      0.0016505976661173494    0.010508                 -83.41844530746062
0.0015432592180507484     0.001588247082646687     0.010508                 -23.451199951839044
0.0016057592180507483     0.001588247082646687     0.010508                 -64.7439321957911
0.0015519110616608982     0.0015258964991760246    0.010507999999999998     -8.519860309746036
0.001614411061660898      0.0015258964991760244    0.010508                 -46.25023520346116
0.0015605629052710477     0.001463545915705362     0.010508                 6.466274780283584
0.0016230629052710478     0.001463545915705362     0.010508                 -15.820456922475138
0.0015692147488811975     0.0014011953322346994    0.010508                 -58.4808673863746
0.0016250000000000001     0.0018999999999999996    0.010508                 -137.19609787958325
0.0016336518436101497     0.001837649416529337     0.010508                 -112.95598996236095
0.0016423036872202995     0.0017752988330586746    0.010508                 -88.89669816447986
0.001650955530830449      0.001712948249588012     0.010508                 -65.0182224859368
0.0016596073744405988     0.0016505976661173496    0.010508                 -41.320562926733146
0.0016682592180507483     0.001588247082646687     0.010508                 -17.803719486869568
0.001676911061660898      0.0015258964991760246    0.010508                 11.400753461369163
0.0016875                 0.0018999999999999998    0.010507999999999998     -118.04737005884999
0.0016961518436101497     0.0018376494165293373    0.010507999999999998     -88.96493181343249
0.0017048036872202995     0.0017752988330586748    0.010508                 -60.063309687355286
0.001713455530830449      0.0017129482495880123    0.010507999999999998     -31.342503680618847
0.0017221073744405988     0.0016505976661173496    0.010508                 -2.802513793221806
0.0017307592180507484     0.001588247082646687     0.010508                 25.2895719843346
0.00175                   0.0018999999999999998    0.010508                 -102.47847548532991
0.0017586518436101498     0.001837649416529337     0.010508                 -68.55370691171993
0.0017673036872202993     0.0017752988330586746    0.010508                 -34.809754457449344
0.0017759555308304491     0.0017129482495880123    0.010508                 -1.2466181225190667
0.0017846073744405989     0.0016505976661173496    0.010508                 25.845998646419645
0.0018125                 0.0018999999999999996    0.010508                 -90.48941415902846
0.0018211518436101496     0.001837649416529337     0.010508                 -51.72231525722327
0.0018298036872202994     0.0017752988330586746    0.010508                 -13.136032474759304
0.0018384555308304492     0.001712948249588012     0.010508                 13.070033447625121
0.001875                  0.0018999999999999998    0.010507999999999998     -82.080186079942
0.0018836518436101497     0.0018376494165293373    0.010508                 -38.47075684994161
0.0018923036872202995     0.0017752988330586748    0.010508                 -13.038323612049794
0.0019375                 0.0018999999999999998    0.010508                 -77.25079124807144
0.0019461518436101497     0.0018376494165293373    0.010508                 -52.47907253260494
0.001889627640626421      0.0012727791921794025    0.010508                 23.51225229877329
0.0018977025267669537     0.0013534749385151076    0.010508                 91.47803797105507
0.0019057774129074862     0.0014341706848508126    0.010508000000000002     71.65050174298926
0.001913852299048019      0.0015148664311865174    0.010508                 48.578169916387424
0.0019219271851885517     0.0015955621775222222    0.010508                 22.26104249125524
0.0019300020713290845     0.0016762579238579272    0.010508000000000002     -7.300880532407973
0.001938076957469617      0.0017569536701936323    0.010508                 -40.10759915460142
0.0018438543703771034     0.001291124355044445     0.010508                 -1.513480862421602
0.001851929256517636      0.00137182010138015      0.010508                 63.35692714321482
0.0018600041426581687     0.0014525158477158547    0.010508                 50.96823221467082
0.0018680790287987014     0.0015332115940515597    0.010508                 35.3347416875971
0.001876153914939234      0.0016139073403872647    0.010508                 16.456455561990992
0.0018842288010797667     0.0016946030867229698    0.010508                 -5.666626162146997
0.0017980811001277854     0.0013094695179094876    0.010508                 -22.525154372669647
0.0018061559862683181     0.0013901652642451924    0.010508                 40.138820814139244
0.001814230872408851      0.0014708610105808972    0.010508                 35.18896718512377
0.0018223057585493837     0.0015515567569166023    0.010508                 26.994317957573628
0.0018303806446899164     0.0016322525032523073    0.010508                 15.554873131494617
0.0017523078298784679     0.0013278146807745297    0.010508                 -39.52276823197212
0.0017603827160190006     0.0014085104271102347    0.010508                 21.82371898383323
0.0017684576021595334     0.0014892061734459398    0.010508                 24.312706654342364
0.0017765324883000661     0.0015699019197816448    0.010508                 23.556898726319915
0.0017065345596291503     0.0013461598436395722    0.010508                 -52.50632244032994
0.001714609445769683      0.001426855589975277     0.010508                 8.411621652294855
0.0017226843319102156     0.001507551336310982     0.010508                 18.339450622329096
0.0016607612893798328     0.0013645050065046148    0.010508                 -61.47581699774287
0.0016688361755203653     0.0014452007528403198    0.010508                 -0.09747118047755521
0.001614988019130515      0.0013828501693696571    0.010508                 -66.43125190420906
0.0018554629663584915     0.0012270291757585016    0.010508                 -33.335370309289885
0.0018096896961091737     0.0012453743386235442    0.010508000000000002     -51.22674897237596
0.0017639164258598562     0.0012637195014885865    0.010508                 -65.99301283234104
0.0017181431556105387     0.001282064664353629     0.010508                 -77.63416188918086
0.0016723698853612207     0.0013004098272186714    0.010508000000000002     -86.15019614289622
0.0016265966151119032     0.001318754990083714     0.010508                 -91.5411155934903
0.0015808233448625856     0.0013371001529487562    0.010508                 -108.90338095382437
0.0018212982920905619     0.001181279159337601     0.010508                 -13.256415078163968
0.0017755250218412443     0.0011996243222026433    0.010508                 -34.54765820931698
0.0017297517515919266     0.0012179694850676858    0.010508                 -52.71378653734678
0.001683978481342609      0.0012363146479327282    0.010508                 -67.75480006225189
0.0016382052110932913     0.0012546598107977705    0.010508                 -79.67069878403345
0.0015924319408439737     0.001273004973662813     0.010508                 -98.44447510852683
0.0017871336178226322     0.0011355291429167       0.010508                 -0.7994083096689337
0.0017413603475733147     0.0011538743057817424    0.010508                 -25.490515908888483