% Model:              stripline_filter_simple_decomp_new_mesh.mph
% Version:            COMSOL 6.1.0.252
% Date:               May 4 2023, 12:56
% Dimension:          3
% Nodes:              1338
% Expressions:        1
% Description:        Surface
% X                       Y                        Z                        imag(emw.Ex)
0.002250371059634427      0.0016305346794393836    0.001608                 535.8536921236066
0.0022466181113357884     0.0015905708277024443    0.0016080000000000003    603.4828311648159
0.002286032336829509      0.0016182819229022096    0.001608                 569.6633426840386
0.00228227938853087       0.0015783180711652699    0.001608                 632.093963891953
0.00224286516303715       0.0015506069759655045    0.001608                 668.3810901509571
0.002278526440232231      0.0015383542194283306    0.0016079999999999998    687.1762731627894
0.002239112214738511      0.0015106431242285653    0.001608                 728.2742873550167
0.0022747734919335927     0.0014983903676913913    0.0016079999999999998    737.2871130750864
0.0022353592664398725     0.001470679272491626     0.001608                 783.1624227769942
0.0022710205436349542     0.001458426515954452     0.001608                 782.4264836288412
0.002231606318141234      0.0014307154207546865    0.001608                 833.0454964168914
0.0022672675953363157     0.0014184626642175123    0.0016079999999999998    822.5943848240572
0.002227853369842595      0.001390751569017747     0.001608                 877.9235082747067
0.002263514647037677      0.0013784988124805728    0.0016079999999999998    868.2760206766025
0.0022241004215439565     0.0013507877172808077    0.001608                 899.1327899421773
0.0023216936140245904     0.001606029166365035     0.001608                 594.3044236097614
0.002317940665725952      0.0015660653146280954    0.0016079999999999998    657.1382296759868
0.0023141877174273134     0.0015261014628911564    0.001608                 713.89577888947
0.002310434769128675      0.0014861376111542169    0.001608                 765.6818587444125
0.002306681820830036      0.0014461737594172774    0.001608                 812.4964692408143
0.0023029288725313975     0.001406209907680338     0.001608                 861.0512005296484
0.0023573548912196726     0.0015937764098278608    0.0016079999999999996    620.1153782031756
0.0023536019429210337     0.0015538125580909215    0.0016079999999999998    683.6770627270658
0.002349848994622395      0.0015138487063539822    0.001608                 742.1098518831952
0.0023460960463237562     0.0014738848546170427    0.0016079999999999998    795.5711716807846
0.0023423430980251177     0.0014339210028801032    0.0016079999999999996    847.7568978680185
0.0023930161684147543     0.0015815236532906868    0.0016079999999999998    647.0962064642808
0.002389263220116116      0.0015415598015537475    0.001608                 711.71046304519
0.002385510271817477      0.0015015959498168078    0.0016079999999999998    771.8184921439656
0.0023817573235188384     0.0014616320980798683    0.0016079999999999996    828.3931126917132
0.002428677445609836      0.0015692708967535124    0.0016079999999999996    675.2469083930778
0.002424924497311197      0.001529307045016573     0.0016079999999999996    741.2384306303591
0.0024211715490125587     0.0014893431932796338    0.0016079999999999996    802.9598450007311
0.002464338722804918      0.0015570181402163382    0.0016079999999999996    704.5674839895663
0.002460585774506279      0.0015170542884793987    0.0016079999999999996    771.4570947950731
0.0024999999999999996     0.001544765383679164     0.0016079999999999996    734.4042471134641
0.0024999999999999996     0.001595513186010712     0.0016079999999999996    640.7177537348055
0.002464338722804918      0.0016077659425478862    0.0016079999999999996    611.890438004471
0.0024999999999999996     0.0016462609883422601    0.0016079999999999996    542.3598490977442
0.002464338722804918      0.001658513744879434     0.0016079999999999996    514.8442539888226
0.0024999999999999996     0.001697008790673808     0.0016079999999999996    440.3693032797325
0.002464338722804918      0.0017092615472109822    0.0016079999999999998    414.16542879222317
0.0024999999999999996     0.0017477565930053558    0.0016079999999999996    334.74611628076883
0.0024643387228049183     0.0017600093495425302    0.001608                 309.8539624146724
0.0025                    0.0017985043953369039    0.0016079999999999998    225.4902881008543
0.0024643387228049183     0.001810757151874078     0.0016079999999999998    201.9098548561704
0.0025                    0.001849252197668452     0.0016079999999999998    112.6018187399888
0.0024643387228049183     0.0018615049542056261    0.0016079999999999998    97.65744277173494
0.0025                    0.0019                   0.0016079999999999998    -1.959645900914096
0.002428677445609836      0.0016200186990850602    0.0016079999999999996    583.9083023424744
0.002428677445609836      0.0016707665014166085    0.0016079999999999998    488.17383894823877
0.0024286774456098365     0.0017215143037481563    0.0016079999999999998    388.8067343730521
0.0024286774456098365     0.0017722621060797042    0.0016079999999999998    285.80698861691377
0.0024286774456098365     0.0018230099084112525    0.0016079999999999998    190.0301653162951
0.002393016168414754      0.0016322714556222346    0.0016079999999999998    556.771346748816
0.0023930161684147548     0.0016830192579537825    0.001608                 462.3486039759928
0.0023930161684147548     0.0017337670602853308    0.0016079999999999998    364.29322002221875
0.0023930161684147543     0.0017845148626168786    0.0016079999999999998    275.15852173276625
0.0023573548912196726     0.0016445242121594088    0.001608                 530.4795712234952
0.0023573548912196726     0.0016952720144909569    0.001608                 437.36854907208516
0.0023573548912196726     0.0017460198168225047    0.0016079999999999998    353.0425120211478
0.0023216936140245904     0.001656776968696583     0.001608                 505.03297576651244
0.002321693614024591      0.0017075247710281309    0.001608                 423.6821361814412
0.0022860323368295086     0.0016690297252337572    0.001608                 487.07739421364533
0.0022004127360446967     0.001619132952038473     0.0016080000000000003    527.8127817917061
0.002196659787746058      0.0015791691003015332    0.0016080000000000003    593.8539639015646
0.0021504544124549664     0.001607731224637562     0.001608                 527.4814997608254
0.002146701464156328      0.0015677673729006226    0.001608                 582.5874480606492
0.0021004960888652362     0.0015963294972366512    0.001608                 520.3292347544976
0.0020967431405665977     0.001556365645499712     0.001608                 564.6218494319207
0.002050537765275506      0.0015849277698357406    0.001608                 506.3559867727227
0.0020467848169768675     0.0015449639180988013    0.0016080000000000003    539.9571680153796
0.002000579441685776      0.00157352604243483      0.001608                 485.56175581550116
0.001996826493387137      0.0015335621906978902    0.001608                 508.59340381102544
0.0019506211180960458     0.0015621243150339191    0.001608                 457.9465418828316
0.001946868169797407      0.0015221604632969796    0.001608                 497.66421786498944
0.0019006627945063156     0.0015507225876330085    0.001608                 431.11696377343986
0.0021929068394474192     0.001539205248564594     0.0016079999999999998    657.7842691880345
0.0021429485158576895     0.0015278035211636833    0.001608                 634.0586099894962
0.0020929901922679592     0.0015164017937627726    0.001608                 603.6338680031463
0.002043031868678229      0.001505000066361862     0.001608                 566.5100432289823
0.0019930735450884984     0.001493598338960951     0.001608                 539.1443533217475
0.0021891538911487807     0.0014992413968276546    0.001608                 716.675920268882
0.002139195567559051      0.001487839669426744     0.001608                 680.4911177127212
0.0020892372439693203     0.001476437942025833     0.001608                 637.6072323687489
0.00203927892037959       0.0014650362146249223    0.001608                 594.2995790558796
0.0021854009428501422     0.0014592775450907153    0.001608                 770.5289171441065
0.002135442619260412      0.0014478758176898045    0.001608                 721.8849712303247
0.002085484295670682      0.0014364740902888936    0.001608                 663.1298950673843
0.0021816479945515038     0.0014193136933537756    0.001608                 819.3432598137094
0.0021316896709617735     0.001407911965952865     0.001608                 745.6353013562617
0.002177895046252865      0.001379349841616836     0.001608                 841.8157979225122
0.002000390975172604      0.0011928054344492603    0.001608                 728.9106805808411
0.0020323494675113687     0.0012153743319966242    0.0016080000000000003    783.3293538894765
0.001986144092220277      0.0012439364563326528    0.0016080000000000003    653.9352571942683
0.0020181025845590417     0.0012665053538800167    0.0016080000000000003    722.457987818018
0.002064307959850133      0.001237943229543988     0.001608                 821.4843454386026
0.002050061076897806      0.0012890742514273805    0.001608                 761.11553335282
0.0020962664521888977     0.0012605121270913519    0.001608                 850.9372462111969
0.002082019569236571      0.0013116431489747444    0.001608                 790.2497720951533
0.0021282249445276624     0.001283081024638716     0.001608                 871.6880562072583
0.002113978061575336      0.0013342120465221086    0.0016080000000000003    809.8607040450149
0.002160183436866427      0.00130564992218608      0.001608                 883.7367754267879
0.0021459365539141        0.0013567809440694723    0.001608                 819.948329202409
0.002192141929205192      0.0013282188197334436    0.001608                 887.0834038697853
0.00197189720926795       0.0012950674782160455    0.001608                 605.0797245647024
0.0020038557016067147     0.0013176363757634094    0.0016079999999999998    675.345008642199
0.0020358141939454794     0.0013402052733107732    0.001608                 704.0513247129065
0.002067772686284244      0.0013627741708581373    0.001608                 723.2343339911465
0.002099731178623009      0.0013853430684055011    0.001608                 732.894036476916
0.001957650326315623      0.001346198500099438     0.001608                 561.2773821395165
0.001989608818654388      0.0013687673976468019    0.001608                 632.0225081635999
0.002021567310993153      0.001391336295194166     0.001608                 650.7775947702137
0.002053525803331917      0.0014139051927415298    0.001608                 660.0093745843603
0.0019434034433632964     0.0013973295219828308    0.001608                 522.528229918712
0.001975361935702061      0.0014198984195301946    0.001608                 592.4904863822208
0.002007320428040826      0.0014424673170775584    0.001608                 601.2943435247417
0.0019291565604109694     0.0014484605438662233    0.001608                 488.8322679022873
0.0019611150527497337     0.001471029441413587     0.001608                 556.7489432980585
0.0019149096774586426     0.0014995915657496158    0.001608                 460.18949609024264
0.00223001630180205       0.0016690297252337574    0.0016080000000000003    438.92495044363386
0.0022656775789971317     0.0017075247710281309    0.001608                 398.02053305765156
0.0023013388561922135     0.0017460198168225047    0.001608                 336.5720862475999
0.0023370001333872952     0.0017845148626168786    0.001608                 266.04580953680977
0.0023726614105823774     0.0018230099084112525    0.001608                 186.44170292527915
0.002408322687777459      0.001861504954205626     0.0016079999999999998    97.75976641300933
0.002443983964972541      0.0018999999999999998    0.0016079999999999998    5.294303314090163E-13
0.002209661543969672      0.0017075247710281309    0.001608                 349.08709143318316
0.0022453228211647544     0.0017460198168225047    0.0016079999999999998    307.68403419262637
0.002280984098359836      0.0017845148626168786    0.0016079999999999998    244.3797704955794
0.0023166453755549183     0.0018230099084112525    0.001608                 171.99767689779247
0.00235230665275          0.001861504954205626     0.0016079999999999998    90.5377533992668
0.002387967929945082      0.0018999999999999998    0.0016079999999999998    1.04522962251764E-12
0.0021893067861372953     0.0017460198168225047    0.001608                 265.4318707991773
0.002224968063332377      0.0017845148626168786    0.001608                 222.7137314543493
0.0022606293405274588     0.0018230099084112525    0.001608                 157.5536508703067
0.002296290617722541      0.001861504954205626     0.001608                 83.31574038552358
0.0023319518949176223     0.0018999999999999998    0.0016079999999999998    1.5494057152377985E-12
0.002168952028304918      0.0017845148626168786    0.001608                 187.95928854161883
0.0022046133054999997     0.0018230099084112525    0.001608                 143.10962484282018
0.002240274582695082      0.0018615049542056261    0.001608                 76.09372737178082
0.002275935859890163      0.0018999999999999998    0.0016079999999999998    2.0419586095694905E-12
0.0021485972704725406     0.0018230099084112525    0.001608                 116.66934466050606
0.002184258547667622      0.001861504954205626     0.001608                 68.87171435803783
0.002219919824862704      0.0018999999999999998    0.001608                 2.522888305512715E-12
0.002128242512640163      0.001861504954205626     0.001608                 51.56203915583964
0.002163903789835245      0.0018999999999999996    0.001608                 2.9921948030674752E-12
0.002107887754807786      0.0018999999999999998    0.001608                 -4.908418648253802
0.0017026113614105663     0.0018999999999999998    0.0016079999999999998    -8.35977341641658
0.0017309044232813877     0.0018501032268047153    0.001608                 -16.48597525654705
0.0017605079890387406     0.0018999999999999998    0.001608                 5.000217766512225E-13
0.001788801050909562      0.0018501032268047153    0.001608                 23.659086565901053
0.0017591974851522089     0.001800206453609431     0.0016079999999999998    2.411960178293601
0.0018170941127803831     0.0018002064536094308    0.0016079999999999998    68.97072529180134
0.0017874905470230303     0.0017503096804141463    0.0016079999999999998    44.154146179896244
0.0018453871746512045     0.0017503096804141463    0.001608                 135.93491617770314
0.0018157836088938516     0.0017004129072188618    0.001608                 108.74058274826182
0.0018736802365220259     0.001700412907218862     0.001608                 224.55165922360325
0.0018440766707646728     0.0016505161340235773    0.001608                 196.1712698833903
0.001901973298392847      0.0016505161340235773    0.001608                 334.82095442950623
0.0018723697326354944     0.001600619360828293     0.001608                 306.44620758528015
0.0019302663602636684     0.0016006193608282928    0.001608                 442.3440043612762
0.0018184046166669148     0.0018999999999999998    0.0016079999999999998    -9.955091747631783E-13
0.001846697678537736      0.0018501032268047153    0.0016079999999999998    46.49628803581965
0.0018749907404085574     0.0018002064536094308    0.0016079999999999998    114.6451282316399
0.0019032838022793788     0.0017503096804141463    0.001608                 204.44652058745802
0.0019315768641502001     0.0017004129072188618    0.0016079999999999998    315.90046510327585
0.0019598699260210215     0.0016505161340235773    0.001608                 424.0597797622092
0.0018763012442950889     0.0018999999999999998    0.0016079999999999998    -4.233042773558038E-13
0.0019045943061659102     0.0018501032268047153    0.001608                 69.33348950573712
0.0019328873680367316     0.0018002064536094308    0.001608                 160.31953117147484
0.001961180429907553      0.0017503096804141463    0.001608                 272.9581249972125
0.0019894734917783744     0.0017004129072188618    0.001608                 383.10880284718985
0.001934197871923263      0.0018999999999999998    0.001608                 -3.6090135185456476E-13
0.0019624909337940845     0.0018501032268047155    0.001608                 92.17069097565549
0.001990783995664906      0.0018002064536094308    0.001608                 205.99393411131203
0.0020190770575357272     0.0017503096804141463    0.001608                 319.4910736162219
0.0019920944995514374     0.0018999999999999998    0.001608                 -1.7679791415261702E-13
0.0020203875614222587     0.0018501032268047153    0.001608                 115.00789244557365
0.00204868062329308       0.001800206453609431     0.001608                 233.2065920693047
0.0020499911271796116     0.0018999999999999998    0.001608                 -2.6775499875080875E-13
0.002078284189050433      0.001850103226804715     0.001608                 124.25535820643698
0.0021800579782123193     0.0016576279978328464    0.0016080000000000003    443.23036816248316
0.002159703220379942      0.0016961230436272202    0.001608                 362.71925777717297
0.002139348462547565      0.001734618089421594     0.001608                 289.20722801800673
0.0021189937047151877     0.001773113135215968     0.0016080000000000003    222.69427888498723
0.00209863894688281       0.0018116081810103414    0.001608                 163.18041037811224
0.002130099654622589      0.0016462262704319357    0.0016079999999999998    452.05910224157986
0.002109744896790212      0.0016847213162263098    0.001608                 382.23191751383234
0.002089390138957835      0.0017232163620206835    0.001608                 319.4038134122305
0.0020690353811254575     0.0017617114078150571    0.001608                 263.57478993677387
0.0020801413310328593     0.001634824543031025     0.001608                 453.9449531575956
0.002059786573200482      0.001673319588825399     0.001608                 394.8016940874122
0.0020394318153681046     0.0017118146346197726    0.001608                 342.657515643373
0.002030183007443129      0.0016234228156301145    0.001608                 448.8879209105288
0.0020098282496107513     0.0016619178614244883    0.001608                 400.42858749790753
0.0019802246838533984     0.0016120210882292034    0.001608                 436.8880055003789
0.0018431412993726323     0.0015503443969360601    0.0016080000000000003    364.3254136336343
0.0018148482375018107     0.0016002411701313444    0.001608                 254.9165486789884
0.0017865551756309894     0.001650137943326629     0.001608                 169.44129854655438
0.0017582621137601682     0.0017000347165219134    0.001608                 108.00199738764745
0.001729969051889347      0.001749931489717198     0.001608                 70.59864520226665
0.0017016759900185254     0.0017998282629124824    0.0016079999999999998    57.2312419904121
0.001673382928147704      0.0018497250361077667    0.0016079999999999998    78.35078211570989
0.0017856198042389487     0.0015499662062391116    0.001608                 309.6885757040418
0.0017573267423681273     0.001599862979434396     0.0016079999999999998    226.26491421750785
0.0017290336804973061     0.0016497597526296806    0.0016079999999999998    166.77964346044226
0.0017007406186264847     0.001699656525824965     0.001608                 131.33032167690408
0.0016724475567556636     0.0017495532990202496    0.0016079999999999998    119.916948866891
0.0016441544948848422     0.001799450072215534     0.0016079999999999998    140.59789211129487
0.0017280983091052652     0.0015495880155421632    0.001608                 254.66020444502857
0.001699805247234444      0.0015994847887374477    0.001608                 197.21791881022745
0.0016715121853636229     0.0016493815619327322    0.001608                 163.7226274285298
0.0016432191234928013     0.0016992783351280167    0.001608                 154.26328502035824
0.0016149260616219801     0.0017491751083233012    0.0016079999999999998    174.2016698621303
0.001670576813971582      0.0015492098248452149    0.001608                 199.2402998565966
0.0016422837521007606     0.0015991065980404996    0.001608                 167.7755624571468
0.0016139906902299392     0.0016490033712357839    0.001608                 160.27025045081677
0.0015856976283591178     0.0016989001444310684    0.0016079999999999998    179.1621153682156
0.0016130553188378983     0.0015488316341482667    0.001608                 143.42886193874548
0.001584762256967077      0.001598728407343551     0.001608                 137.93784515826536
0.0015564691950962558     0.0016486251805388355    0.001608                 155.47922862955397
0.001555533823704215      0.0015484534434513182    0.001608                 87.22589069147774
0.0015272407618333937     0.0015983502166466025    0.001608                 103.15300964614175
0.0014980123285705316     0.0015480752527543698    0.001608                 5.37462869062493
0.001524707689725261      0.0014978132477201796    0.0016080000000000003    -16.092868203739044
0.0015822291848589444     0.001498191438417128     0.0016080000000000003    85.70951089219352
0.0015514030508799904     0.0014475512426859892    0.001608                 -22.277769939004884
0.0016089245460136738     0.0014479294333829373    0.001608                 106.20766551328165
0.0015780984120347197     0.0013972892376517988    0.001608                 -5.347701029945256
0.0016356199071684032     0.001397667428348747     0.001608                 148.6801761035165
0.0016047937731894493     0.0013470272326176085    0.001608                 34.69733852344143
0.0016623152683231327     0.0013474054233145569    0.0016080000000000003    213.12704266289734
0.0016314891343441786     0.0012967652275834181    0.001608                 97.85734872115609
0.001689010629477862      0.0012971434182803662    0.001608                 299.54826519142523
0.0016581844954989078     0.001246503222549228     0.001608                 184.13232956319553
0.0017157059906325912     0.001246881413246176     0.001608                 412.9616088666635
0.0016848798566536374     0.0011962412175150375    0.001608                 312.85189040898234
0.001639750679992628      0.0014985696291140763    0.0016079999999999998    167.57300514569835
0.001666446041147357      0.0014483076240798859    0.001608                 213.75176914580118
0.0016931414023020866     0.0013980456190456957    0.001608                 281.90488911504747
0.0017198367634568162     0.0013477836140115052    0.001608                 372.03236505343943
0.0017465321246115453     0.0012975216089773148    0.001608                 483.14792408475154
0.0016972721751263111     0.0014989478198110247    0.001608                 249.04879368616417
0.0017239675362810407     0.0014486858147768344    0.001608                 320.9081670652781
0.00175066289743577       0.0013984238097426438    0.001608                 414.7418964135388
0.0017773582585904994     0.0013481618047084536    0.001608                 523.8457208604324
0.0017547936702599948     0.001499326010507973     0.001608                 330.1368765135897
0.001781489031414724      0.0014490640054737828    0.001608                 427.67685927171783
0.0018081843925694533     0.0013988020004395921    0.001608                 535.0549991937012
0.001812315165393678      0.0014997042012049214    0.001608                 410.8372536279825
0.0018390105265484074     0.001449442196170731     0.001608                 516.7757590845597
0.0018698366605273615     0.0015000823919018697    0.001608                 469.00800053300776
0.0019553179582413233     0.0011932962606015143    0.0016080000000000003    645.6622317768749
0.0019410710752889961     0.0012444272824849068    0.0016080000000000003    596.798532932534
0.0019268241923366689     0.0012955583043682995    0.001608                 554.180238130284
0.0019125773093843423     0.001346689326251692     0.001608                 517.8778450395719
0.0018983304264320153     0.0013978203481350847    0.0016080000000000003    487.8913536604052
0.0018840835434796883     0.0014489513700184772    0.001608                 464.2207639927776
0.001910244941310042      0.001193787086753768     0.001608                 591.2945619508063
0.001895998058357715      0.0012449181086371607    0.0016079999999999998    560.3473583631483
0.0018817511754053882     0.0012960491305205532    0.001608                 535.660084306048
0.0018675042924530614     0.001347180152403946     0.001608                 517.2887119604917
0.0018532574095007344     0.0013983111742873384    0.001608                 505.23324132647656
0.001865171924378761      0.001194277912906022     0.001608                 537.262333714873
0.0018509250414264341     0.0012454089347894146    0.001608                 524.239855189624
0.0018366781584741073     0.0012965399566728071    0.001608                 517.4836018776798
0.0018224312755217803     0.0013476709785561996    0.001608                 517.043250277274
0.0018200989074474803     0.0011947687390582756    0.001608                 483.5655470690749
0.0018058520244951535     0.0012458997609416686    0.001608                 488.47602341196296
0.0017916051415428264     0.001297030782825061     0.001608                 499.650790845169
0.0017750258905161994     0.0011952595652105296    0.001608                 430.2042020134134
0.0017607790075638723     0.001246390587093922     0.001608                 453.05586303016105
0.0017299528735849183     0.0011957503913627835    0.001608                 377.1782985478877
0.001984893452320434      0.0011414399700013125    0.0016080000000000003    735.4777964665723
0.0019398204353891528     0.0011419307961535665    0.0016080000000000003    650.7907115602259
0.0018947474184578717     0.0011424216223058202    0.001608                 579.3912025881165
0.0018496744015265908     0.0011429124484580741    0.001608                 508.3189054004141
0.00180460138459531       0.001143403274610328     0.0016080000000000003    437.5738199971215
0.001759528367664029      0.0011438941007625818    0.001608                 367.15594637823574
0.001714455350732748      0.0011443849269148357    0.001608                 301.6592596840162
0.0019693959294682633     0.0010900745055533647    0.001608                 719.8905564373265
0.0019243229125369822     0.0010905653317056186    0.0016079999999999998    640.2582971980021
0.0018792498956057015     0.0010910561578578724    0.001608                 551.8124235913795
0.0018341768786744208     0.0010915469840101265    0.001608                 463.6937617691656
0.0017891038617431397     0.0010920378101623802    0.001608                 375.90231173136044
0.0017440308448118586     0.0010925286363146342    0.001608                 282.99863020113867
0.001953898406616093      0.0010387090411054169    0.001608                 688.813411722185
0.0019088253896848125     0.0010391998672576708    0.001608                 613.99449102075
0.0018637523727535314     0.0010396906934099248    0.001608                 508.50225277961147
0.0018186793558222503     0.0010401815195621787    0.001608                 403.33722632288664
0.0017736063388909694     0.0010406723457144324    0.001608                 284.00430760448853
0.001938400883763923      9.873435766574693E-4     0.001608                 642.2463623211461
0.001893327866832642      9.878344028097232E-4     0.001608                 571.9992930284661
0.001848254849901361      9.88325228961977E-4      0.001608                 449.4606901528184
0.00180318183297008       9.888160551142309E-4     0.001608                 304.6762918940635
0.0019229033609117524     9.359781122095215E-4     0.001608                 580.1894082342083
0.0018778303439804715     9.364689383617752E-4     0.001608                 514.2727032211565
0.0018327573270491906     9.369597645140291E-4     0.001608                 345.01458306987047
0.0019074058380595825     8.846126477615737E-4     0.001608                 502.642549461375
0.0018623328211283014     8.851034739138275E-4     0.001608                 405.0191811319039
0.0018919083152074121     8.33247183313626E-4      0.001608                 426.07064212802715
0.0013095382995334567     0.0012014141899881342    0.001608                 -302.6250841668079
0.0013631585219791968     0.0012006751939205491    0.0016080000000000003    -191.60185144228006
0.0013364631608244674     0.0012509371989547393    0.0016080000000000003    -182.36043908032445
0.0013900833832702075     0.001250198202887154     0.0016080000000000003    -107.32752286464302
0.0014167787444249369     0.0011999361978529636    0.001608                 -113.83708176849343
0.0014437036057159476     0.0012494592068195687    0.001608                 -53.07460783362967
0.0014703989668706768     0.0011991972017853783    0.001608                 -35.38591653688961
0.0014973238281616875     0.0012487202107519836    0.001608                 1.8821081982314354
0.001524019189316417      0.0011984582057177932    0.001608                 43.751644252527626
0.0015509440506074278     0.0012479812146843983    0.0016080000000000003    57.54262523094076
0.0015776394117621572     0.0011977192096502079    0.001608                 123.57560059975967
0.001604564273053168      0.001247242218616813     0.001608                 113.9069432644983