% Model:              stripline_filter_simple_decomp_new_mesh.mph
% Version:            COMSOL 6.1.0.252
% Date:               May 18 2023, 21:19
% Dimension:          3
% Nodes:              1688
% Expressions:        1
% Description:        Surface
% X                       Y                        Z                        Power outflow, time average
0.001739047872793132      0.005827892223864421     0.005608000000000001     24093.152216426213
0.001773244014511185      0.005864537376266771     0.005608000000000001     13876.387689040832
0.0017227202645166144     0.005867129804031616     0.005608000000000001     15105.746521742185
0.0017569164062346675     0.0059037749564339655    0.005608000000000001     8242.066978902561
0.0018074401562292383     0.005901182528669121     0.005608000000000002     7514.861193662869
0.0017911125479527206     0.005940420108836316     0.005608000000000001     4087.10296768134
0.0018416362979472912     0.005937827681071471     0.005608                 3231.452882604549
0.0018253086896707735     0.005977065261238665     0.005608000000000001     1912.3925582050483
0.0018758324396653443     0.005974472833473821     0.005608000000000001     890.8311486406903
0.0018595048313888268     0.006013710413641016     0.005608000000000001     1594.7971687554539
0.0019100285813833974     0.0060111179858761705    0.005608000000000002     357.6643845462047
0.00189370097310688       0.006050355566043365     0.005608000000000001     3011.1782176143156
0.0019442247231014505     0.00604776313827852      0.005608000000000001     1496.6209830960356
0.0019278971148249328     0.006087000718445715     0.005608                 6085.787712310492
0.0019784208648195036     0.00608440829068087      0.005608000000000001     3949.0374855428304
0.0017063926562400971     0.00590636738419881      0.005608000000000002     9182.916890323153
0.00174058879795815       0.0059430125366011595    0.005608                 4670.174220507943
0.001774784939676203      0.00597965768900351      0.005608                 2601.8844587282
0.0018089810813942562     0.00601630284140586      0.005608000000000002     2467.130888744437
0.0018431772231123095     0.00605294799380821      0.005608000000000002     4142.7749288384375
0.0018773733648303624     0.006089593146210559     0.005608000000000002     7758.117637890357
0.0016900650479635794     0.005945604964366005     0.005608                 5492.268529749438
0.0017242611896816323     0.005982250116768355     0.005608                 3271.8254530146414
0.0017584573313996856     0.006018895269170705     0.005608000000000002     3295.536826554605
0.0017926534731177385     0.006055540421573054     0.005608                 5206.066981941574
0.0018268496148357918     0.006092185573975404     0.005608                 9349.36184406394
0.001673737439687062      0.005984842544533199     0.005608000000000001     4053.031998824729
0.0017079335814051153     0.00602148769693555      0.005608000000000002     4070.256639395302
0.0017421297231231681     0.006058132849337899     0.005608000000000001     6191.296034133147
0.0017763258648412212     0.006094778001740249     0.005608                 10839.355193965279
0.0016574098314105445     0.006024080124700394     0.005608000000000002     4884.4378563527
0.0016916059731285976     0.006060725277102744     0.005608000000000001     7088.703742622472
0.0017258021148466507     0.006097370429505094     0.005608000000000002     12207.932550728434
0.001641082223134027      0.006063317704867588     0.005608000000000001     8005.716661137058
0.0016752783648520799     0.006099962857269938     0.005608                 13434.92877748746
0.0016247546148575095     0.006102555285034783     0.005608000000000001     14914.367593181383
0.0025000000000000005     0.006050000000000001     0.005608000000000002     -8324.362144943281
0.0025000000000000005     0.006100000000000001     0.005608000000000002     -5986.967073919173
0.0024677362666874134     0.006061755674590462     0.005608000000000002     -7560.976395517844
0.0024677362666874134     0.006111755674590462     0.005608000000000001     -5588.715890914615
0.0025000000000000005     0.006150000000000001     0.005608000000000002     -4408.309022347589
0.0024677362666874125     0.006161755674590461     0.005608000000000001     -4036.027776136021
0.0025000000000000005     0.006200000000000001     0.005608000000000001     -3000.449048677062
0.0024677362666874134     0.006211755674590461     0.005608000000000001     -2663.597025170461
0.0025000000000000005     0.00625                  0.005608000000000002     -1808.760284808595
0.0024677362666874134     0.0062617556745904615    0.005608000000000001     -1516.796769918999
0.0025000000000000005     0.0063                   0.005608000000000002     -878.6158626431949
0.0024677362666874125     0.006311755674590461     0.005608000000000001     -641.0001422826256
0.0025000000000000005     0.006350000000000001     0.005608000000000001     -255.38891408189963
0.0024677362666874125     0.006361755674590461     0.005608                 -29.207603940923022
0.0025                    0.0064                   0.005608000000000001     14.188598087034707
0.0024354725333748254     0.006073511349180923     0.005608000000000002     -6872.740205200623
0.0024354725333748254     0.006123511349180922     0.005608000000000002     -5087.372406579236
0.0024354725333748254     0.0061735113491809225    0.005608000000000002     -3553.128027902202
0.0024354725333748254     0.006223511349180923     0.005608000000000002     -2208.6002989502385
0.0024354725333748254     0.006273511349180923     0.005608000000000002     -1099.1623516244122
0.0024354725333748254     0.006323511349180922     0.005608000000000002     -171.19526525420346
0.0024032088000622382     0.006085267023771384     0.005608000000000001     -6111.432683602536
0.0024032088000622382     0.006135267023771384     0.005608000000000002     -4476.645961538216
0.0024032088000622382     0.006185267023771384     0.005608000000000002     -2953.3191182713845
0.0024032088000622382     0.006235267023771383     0.005608                 -1629.1682106416729
0.002403208800062238      0.006285267023771383     0.005608                 -409.71828502802293
0.0023709450667496507     0.006097022698361845     0.005608000000000002     -5271.510491415399
0.0023709450667496507     0.006147022698361846     0.005608000000000002     -3750.245896416809
0.0023709450667496507     0.006197022698361845     0.005608000000000001     -2230.3103878688416
0.0023709450667496502     0.0062470226983618446    0.005608                 -742.720562437599
0.002338681333437063      0.006108778372952307     0.005608000000000002     -4347.430289331055
0.002338681333437063      0.006158778372952306     0.005608000000000001     -2901.881551840318
0.002338681333437063      0.006208778372952306     0.005608000000000002     -1168.145996658147
0.002306417600124476      0.006120534047542768     0.005608000000000001     -3333.6487380413755
0.0023064176001244756     0.006170534047542767     0.005608                 -1683.9384868648754
0.0022741538668118884     0.006132289722133228     0.005608000000000001     -2119.2270552603
0.0015000000000000002     0.006400000000000001     0.005608000000000001     49838.42815888335
0.0015178220878367874     0.006357507897862114     0.005608000000000001     44046.39979522874
0.001547619047619048      0.006400000000000002     0.005608000000000001     48969.038141019686
0.001565441135455835      0.006357507897862114     0.005608000000000001     43166.787394191546
0.0015356441756735743     0.006315015795724225     0.005608000000000002     38453.56251077606
0.001583263223292622      0.006315015795724225     0.005608000000000001     37721.542770742846
0.0015534662635103612     0.006272523693586336     0.005608                 33241.206234743826
0.001601085311129409      0.006272523693586336     0.005608000000000001     32640.456336560106
0.0015712883513471485     0.006230031591448448     0.005608000000000001     28419.35874070384
0.0016189073989661962     0.006230031591448449     0.005608000000000001     27930.680157529925
0.0015891104391839354     0.00618753948931056      0.005608000000000002     23998.047802227902
0.001636729486802983      0.00618753948931056      0.005608000000000001     23599.36629953879
0.0016069325270207224     0.006145047387172671     0.005608000000000001     19987.301192887833
0.00165455157463977       0.006145047387172671     0.005608                 19120.475720200182
0.0015952380952380957     0.006400000000000001     0.005608000000000002     48131.013757232395
0.0016130601830748824     0.006357507897862112     0.005608000000000001     42240.54531143408
0.0016308822709116696     0.006315015795724225     0.005608000000000001     36724.714901411746
0.0016487043587484567     0.006272523693586336     0.005608000000000002     31590.674593051983
0.0016665264465852438     0.006230031591448448     0.005608000000000002     26845.576452241316
0.001684348534422031      0.00618753948931056      0.005608000000000002     22090.376088225697
0.001642857142857143      0.006400000000000001     0.005608000000000001     46864.76204609983
0.0016606792306939303     0.006357507897862113     0.005608000000000001     40920.728033084866
0.0016785013185307172     0.006315015795724225     0.005608000000000002     35368.96396824247
0.0016963234063675043     0.006272523693586336     0.005608000000000001     30216.621917459233
0.0017141454942042912     0.006230031591448448     0.005608000000000001     25226.358348936777
0.001690476190476191      0.006400000000000001     0.005608000000000002     45191.524292980575
0.001708298278312978      0.006357507897862113     0.005608000000000002     39228.57684450255
0.0017261203661497648     0.006315015795724225     0.005608000000000002     33675.53125659366
0.001743942453986552      0.006272523693586336     0.005608000000000001     28483.693142634256
0.0017380952380952385     0.006400000000000001     0.005608000000000002     43132.54178323331
0.0017559173259320254     0.006357507897862113     0.005608000000000001     37185.33303104576
0.0017737394137688125     0.006315015795724225     0.005608000000000002     31817.651109618855
0.001785714285714286      0.006400000000000001     0.005608000000000002     40709.05580221664
0.001803536373551073      0.006357507897862113     0.005608000000000001     35183.50289019138
0.0018333333333333337     0.006400000000000001     0.005608000000000002     38209.0989571875
0.0019576940746071935     0.006129492820583604     0.005608000000000001     7928.005925925519
0.0019071703246126232     0.006132085248348448     0.005608000000000001     9767.164051537151
0.0019369672843948839     0.006174577350486336     0.005608000000000002     11892.852568465672
0.0018864435344003129     0.006177169778251181     0.005608000000000001     13904.110414233095
0.0019162404941825736     0.0062196618803890685    0.005608000000000001     16296.91235797096
0.001865716744188003      0.006222254308153914     0.005608000000000001     18547.680685151856
0.0018955137039702637     0.006264746410291802     0.005608000000000002     21142.04587606602
0.0018449899539756931     0.006267338838056647     0.005608000000000002     23701.538159799875
0.0018747869137579537     0.006309830940194536     0.005608000000000002     26430.113704375533
0.001824263163763383      0.00631242336795938      0.005608000000000001     29369.346133683663
0.0018540601235456438     0.0063549154700972684    0.005608000000000002     32162.976424524175
0.0018566465746180523     0.006134677676113292     0.005608                 11793.72702602589
0.0018359197844057423     0.0061797622060160255    0.005608000000000002     16077.557293180485
0.0018151929941934326     0.006224846735918758     0.005608000000000002     20865.71137545899
0.0017944662039811226     0.006269931265821491     0.005608000000000002     26161.852568367947
0.0018061228246234818     0.006137270103878137     0.005608000000000001     13719.592500250517
0.0017853960344111721     0.006182354633780871     0.005608000000000002     18119.09907634912
0.001764669244198862      0.0062274391636836035    0.005608000000000001     23020.62937447278
0.0017555990746289114     0.0061398625316429825    0.005608000000000002     15514.188543269738
0.0017348722844166013     0.006184947061545714     0.005608000000000002     19998.16383279773
0.0017050753246343406     0.006142454959407826     0.005608000000000001     17146.943224142335
0.0021666666666666666     0.0063999999999999994    0.005608000000000001     12960.623218064973
0.0021820219809731266     0.006361755674590461     0.005608000000000001     10321.492109377657
0.002214285714285714      0.0063999999999999994    0.005608000000000001     8972.942544170804
0.0022296410285921747     0.00636175567459046      0.005608000000000001     7311.695514347093
0.002197377295279587      0.0063235113491809216    0.005608000000000002     8162.90064095601
0.002244996342898635      0.006323511349180922     0.005608000000000001     5615.720199244386
0.0022127326095860472     0.006285267023771383     0.005608                 6034.15676436224
0.002260351657205095      0.006285267023771383     0.005608000000000001     3888.6590592957073
0.0022280879238925078     0.0062470226983618446    0.005608000000000001     3937.3612432294162
0.0022757069715115554     0.006247022698361845     0.005608000000000001     2134.1545549340926
0.002243443238198968      0.006208778372952306     0.005608000000000002     1874.6148411905651
0.0022910622858180155     0.006208778372952306     0.005608000000000001     355.84914659257356
0.002258798552505428      0.0061705340475427676    0.005608000000000001     -151.9816781212304
0.002261904761904762      0.0063999999999999994    0.005608000000000002     6456.370336575799
0.002277260076211222      0.006361755674590461     0.005608                 5051.6422803467885
0.0022926153905176824     0.006323511349180922     0.005608                 3604.1506765420218
0.0023079707048241425     0.006285267023771384     0.005608000000000002     2117.537985594531
0.002323326019130603      0.0062470226983618446    0.005608000000000002     595.4466679373486
0.0023095238095238095     0.0063999999999999994    0.005608                 4312.50523060558
0.00232487912383027       0.006361755674590461     0.005608                 3165.3269213286194
0.00234023443813673       0.006323511349180922     0.005608000000000002     1967.349802179144
0.00235558975244319       0.006285267023771383     0.005608                 722.2163335901917
0.002357142857142857      0.0063999999999999994    0.005608000000000001     2568.78292347151
0.0023724981714493176     0.006361755674590462     0.005608000000000002     1680.1851345039463
0.0023878534857557777     0.006323511349180922     0.005608000000000001     732.7532733671103
0.0024047619047619048     0.0064                   0.005608000000000002     1252.639112384944
0.0024201172190683653     0.006361755674590461     0.005608000000000001     623.6526170841257
0.0024523809523809524     0.0064                   0.005608000000000001     391.5094945572457
0.0018809523809523814     0.006400000000000001     0.005608000000000002     34283.72666646261
0.0019016791711646912     0.006354915470097268     0.005608000000000001     28677.22021721282
0.0019224059613770013     0.006309830940194534     0.005608000000000001     23441.21850751046
0.0019431327515893112     0.006264746410291801     0.005608000000000001     18575.66366961266
0.0019638595418016215     0.006219661880389069     0.005608000000000001     14080.497835776507
0.001984586332013931      0.006174577350486335     0.005608000000000001     9955.663138259128
0.002005313122226241      0.006129492820583602     0.005608                 6298.507022136091
0.0019285714285714288     0.006400000000000001     0.005608000000000002     30899.475862264244
0.0019492982187837389     0.006354915470097268     0.005608000000000002     25535.71012688704
0.001970025008996049      0.006309830940194535     0.005608000000000002     20543.220107024616
0.0019907517992083586     0.006264746410291802     0.005608000000000002     15921.947934934087
0.0020114785894206687     0.006219661880389069     0.005608000000000002     11671.835742872561
0.0020322053796329787     0.006174577350486336     0.005608000000000002     7820.769365609506
0.0019761904761904764     0.0063999999999999994    0.005608000000000001     27447.042487576095
0.0019969172664027865     0.006354915470097268     0.005608000000000002     22356.336066364667
0.002017644056615096      0.006309830940194535     0.005608000000000002     17637.67633663536
0.0020383708468274062     0.006264746410291801     0.005608                 13291.005430645284
0.0020590976370397163     0.0062196618803890685    0.005608                 9275.78673547128
0.002023809523809524      0.0064                   0.005608000000000002     23971.962820312227
0.002044536314021834      0.006354915470097268     0.005608000000000002     19184.634313559738
0.002065263104234144      0.006309830940194534     0.005608000000000001     14770.123474256703
0.002085989894446454      0.0062647464102918       0.005608                 10618.565895231703
0.0020714285714285717     0.0063999999999999994    0.005608000000000002     20519.773138386678
0.0020921553616408814     0.006354915470097266     0.005608000000000001     16066.141146386282
0.0021128821518531914     0.006309830940194534     0.005608000000000002     11804.11360840108
0.002119047619047619      0.0063999999999999994    0.005608000000000001     17136.009719713446
0.002139774409259929      0.006354915470097266     0.005608                 12787.436638489684
0.002231906295098691      0.006125449517640034     0.005608000000000001     -1378.0789890459714
0.0022165509807922303     0.0061636938430495725    0.005608000000000001     713.4068000335142
0.0022011956664857698     0.006201938168459111     0.005608000000000001     2885.754127380963
0.0021858403521793097     0.0062401824938686495    0.005608000000000001     5153.994221306506
0.0021704850378728496     0.006278426819278189     0.005608000000000001     7517.568014977072
0.002155129723566389      0.006316671144687727     0.005608000000000001     9975.91644155961
0.0021896587233854927     0.006118609313146841     0.005608000000000002     -653.7304711089802
0.002174303409079032      0.006156853638556379     0.005608                 1798.2316448990446
0.002158948094772572      0.006195097963965918     0.005608                 4093.7212755792007
0.002143592780466112      0.006233342289375457     0.005608000000000002     6496.573492711372
0.002128237466159652      0.0062715866147849955    0.005608000000000002     9006.229229462477
0.0021474111516722946     0.006111769108653646     0.005608                 99.0447620270919
0.0021320558373658345     0.006150013434063185     0.005608                 2926.2885797190875
0.0021167005230593745     0.006188257759472724     0.005608000000000002     5335.132787698886
0.002101345208752914      0.006226502084882263     0.005608                 7862.809402004572
0.0021051635799590974     0.006104928904160452     0.005608000000000001     871.9771476312379
0.0020898082656526373     0.0061431732295699915    0.005608000000000002     4080.1836455984326
0.0020744529513461764     0.006181417554979529     0.005608000000000001     6592.594704844803
0.0020629160082458993     0.006098088699667258     0.005608000000000002     1656.7971229725897
0.0020475606939394392     0.0061363330250767964    0.005608000000000001     5242.522883642005
0.0020206684365327012     0.006091248495174064     0.005608000000000001     2445.2351253201505
0.0016956528655186047     0.005827668603650346     0.005608000000000001     25542.390731434312
0.0016793252572420872     0.005866906183817541     0.005608000000000001     16310.80937589566
0.0016629976489655697     0.005906143763984735     0.005608000000000001     10065.587512996633
0.001646670040689052      0.00594538134415193      0.005608000000000001     6126.149270768594
0.0016303424324125347     0.005984618924319124     0.005608000000000001     4507.719803846473
0.0016140148241360172     0.006023856504486319     0.005608000000000001     5225.524266865028
0.0015976872158594995     0.006063094084653513     0.005608                 8544.037080165053
0.0016522578582440774     0.005827444983436272     0.005608000000000002     26740.93564737004
0.0016359302499675597     0.005866682563603467     0.005608                 16870.342277164127
0.0016196026416910423     0.005905920143770661     0.005608                 10509.034889433906
0.001603275033414525      0.005945157723937856     0.005608000000000002     6463.149306378356
0.0015869474251380075     0.00598439530410505      0.005608000000000002     4747.910682632331
0.00157061981686149       0.006023632884272245     0.005608000000000002     5635.528038390972
0.00160886285096955       0.005827221363222197     0.005608                 27812.31355399155
0.0015925352426930327     0.005866458943389391     0.005608                 17390.770218324935
0.0015762076344165155     0.005905696523556586     0.005608000000000002     10902.138798778553
0.0015598800261399978     0.00594493410372378      0.005608                 6738.567367910502
0.00154355241786348       0.005984171683890975     0.005608                 5157.969760170873
0.0015654678436950228     0.0058269977430081225    0.005608000000000001     28754.633017305037
0.0015491402354185055     0.005866235323175317     0.005608000000000002     17873.194844000354
0.0015328126271419878     0.005905472903342511     0.005608000000000001     11246.00088565287
0.0015164850188654703     0.005944710483509705     0.005608                 7149.081775085496
0.0015220728364204955     0.005826774122794047     0.005608000000000002     29566.00260331653
0.001505745228143978      0.005866011702961241     0.005608000000000001     18318.71779881284
0.0014894176198674606     0.005905249283128436     0.005608000000000002     11646.583612715534
0.0014786778291459685     0.005826550502579972     0.005608000000000001     30244.530878032056
0.0014623502208694508     0.005865788082747167     0.005608                 18688.1948026417
0.001435282821871441      0.005826326882365898     0.005608000000000001     30727.220530361094
0.001166666666666667      0.0064                   0.005608000000000001     37925.18748642463
0.001186763237473306      0.006360807305744668     0.005608000000000001     35254.75005181065
0.0012142857142857146     0.006400000000000001     0.005608000000000001     41300.37619008635
0.0012343822850923538     0.006360807305744668     0.005608000000000001     37617.802864465695
0.0012068598082799452     0.006321614611489335     0.005608000000000002     31891.773159060576
0.0012544788558989928     0.006321614611489335     0.005608000000000001     34029.88188633358
0.0012269563790865841     0.006282421917234        0.005608                 28615.31607530392
0.0012745754267056318     0.006282421917234002     0.005608000000000001     30557.323217446392
0.0012470529498932231     0.006243229222978668     0.005608000000000001     25450.38136782606
0.001294671997512271      0.006243229222978669     0.005608000000000001     27220.836819560514
0.0012671495206998623     0.006204036528723335     0.005608000000000002     22421.9716039123
0.00131476856831891       0.006204036528723335     0.005608000000000001     24041.132654432324
0.0012872460915065013     0.006164843834468002     0.005608000000000001     19555.089350847986
0.001334865139125549      0.006164843834468002     0.005608                 20809.860513921056
0.0013073426623131403     0.006125651140212669     0.005608000000000001     16353.680589373878
0.0012619047619047623     0.0064                   0.005608000000000002     43643.65087988904
0.0012820013327114012     0.006360807305744667     0.005608                 39659.667373205826
0.0013020979035180402     0.006321614611489334     0.005608                 35793.06246437917
0.0013221944743246794     0.006282421917234001     0.005608000000000002     32064.546115165467
0.0013422910451313184     0.006243229222978668     0.005608000000000002     28494.82828732106
0.0013623876159379574     0.006204036528723335     0.005608000000000002     24934.848095004243
0.00130952380952381       0.0064                   0.005608                 45629.191258061706
0.0013296203803304487     0.006360807305744668     0.005608                 41358.05214926625
0.0013497169511370879     0.006321614611489335     0.005608000000000002     37227.01788869538
0.001369813521943727      0.006282421917234002     0.005608                 33256.7984381055
0.0013899100927503658     0.006243229222978668     0.005608                 29390.884412786218
0.0013571428571428573     0.006400000000000001     0.005608000000000001     47232.09203426125
0.0013772394279494965     0.006360807305744668     0.005608000000000002     42688.051902303894
0.0013973359987561355     0.006321614611489335     0.005608000000000001     38306.84286893911
0.0014174325695627745     0.006282421917234001     0.005608                 34155.63587883555
0.0014047619047619052     0.006400000000000001     0.005608000000000002     48427.44791814455
0.001424858475568544      0.006360807305744668     0.005608000000000001     43624.76134197558
0.0014449550463751831     0.006321614611489335     0.005608000000000002     39206.76890472082
0.0014523809523809526     0.006400000000000001     0.005608000000000001     49190.3536193684
0.0014724775231875916     0.006360807305744668     0.005608                 44521.949902010616
0.001579410050208314      0.006105854692917339     0.005608000000000001     15719.63831307878
0.001561587962371527      0.006148346795055227     0.005608000000000001     20243.347532918237
0.0015437658745347397     0.006190838897193115     0.005608000000000001     24336.422070109707
0.0015259437866979527     0.006233330999331003     0.005608000000000001     28861.59052927894
0.0015081216988611658     0.006275823101468891     0.005608000000000001     33805.94942916895
0.0014902996110243787     0.00631831520360678      0.005608000000000001     39156.595288522636
0.0015340654855591183     0.006109154100799893     0.005608000000000002     16329.366302018212
0.0015162433977223312     0.006151646202937781     0.005608                 20794.405700462892
0.001498421309885544      0.00619413830507567      0.005608                 24843.621689953412
0.0014805992220487572     0.006236630407213558     0.005608000000000002     29303.879339656807
0.00146277713421197       0.006279122509351446     0.005608000000000002     34162.275168316206
0.0014887209209099228     0.006112453508682448     0.005608                 16768.148432748283
0.0014708988330731356     0.006154945610820337     0.005608                 21108.247027902406
0.0014530767452363487     0.0061974377129582255    0.005608000000000002     25087.175401155135
0.0014352546573995616     0.006239929815096114     0.005608                 29456.093172855908
0.0014433763562607272     0.006115752916565003     0.005608000000000001     17029.331968195787
0.00142555426842394       0.006158245018702891     0.005608000000000002     21180.30455268018
0.001407732180587153      0.00620073712084078      0.005608000000000001     25062.51624115824
0.0013980317916115316     0.006119052324447558     0.005608000000000002     17106.264171287403
0.0013802097037747445     0.006161544426585446     0.005608000000000001     21006.011312239534
0.001352687226962336      0.006122351732330114     0.005608000000000001     16992.292304949988
0.0013256198279643261     0.006082890531948845     0.005608000000000001     9585.670478913684
0.0013709643926135217     0.006079591124066289     0.005608000000000001     9869.603702601258
0.001343896993615512      0.00604012992368502      0.005608000000000002     5615.177651683527
0.0013892415582647075     0.006036830515802465     0.005608000000000001     5877.152845194421
0.0013621741592666978     0.005997369315421195     0.005608                 4405.535586493812
0.0014075187239158933     0.005994069907538641     0.005608000000000001     4727.474323291996
0.0013804513249178836     0.005954608707157371     0.005608000000000001     6000.342094211292
0.0014257958895670792     0.005951309299274817     0.005608000000000001     6451.855747622746
0.0013987284905690694     0.005911848098893547     0.005608000000000002     10443.194985702714
0.001444073055218265      0.005908548691010991     0.005608000000000001     11081.5847289154
0.0014170056562202553     0.005869087490629722     0.005608000000000001     17777.692071834797
0.0014163089572627172     0.006076291716183733     0.005608                 9862.318859970057
0.0014345861229139033     0.00603353110791991      0.005608                 5974.45835670562
0.001452863288565089      0.005990770499656086     0.005608000000000002     4972.500710261922
0.001471140454216275      0.005948009891392261     0.005608000000000002     6887.733531367729
0.0014616535219119128     0.006072992308301179     0.005608                 9742.30619139161
0.0014799306875630989     0.006030231700037355     0.005608000000000002     6003.62769594227
0.0014982078532142845     0.00598747109177353      0.005608                 5193.982578630015
0.0015069980865611086     0.006069692900418625     0.005608000000000002     9518.304208455716
0.0015252752522122944     0.006026932292154799     0.005608000000000001     5973.399374494225
0.0015523426512103042     0.006066393492536069     0.005608000000000001     9199.05142275225
0.0013918955734046172     0.005828918482289261     0.005608000000000001     28774.460209472367
0.0013736184077534313     0.005871679090553085     0.005608000000000001     16175.022948087842
0.0013553412421022455     0.005914439698816909     0.005608000000000001     9235.514050669539
0.0013370640764510597     0.005957200307080734     0.005608000000000001     5134.107200633538