% Model:              stripline_filter_simple_decomp_new_mesh.mph
% Version:            COMSOL 6.1.0.252
% Date:               May 18 2023, 21:20
% Dimension:          3
% Nodes:              1688
% Expressions:        1
% Description:        Surface
% X                       Y                        Z                        real(emw.Ez)
0.001739047872793132      0.005827892223864421     0.005608000000000001     -1050.9657555793665
0.001773244014511185      0.005864537376266771     0.005608000000000001     -1063.3992401518713
0.0017227202645166144     0.005867129804031616     0.005608000000000001     -1018.0204098834379
0.0017569164062346675     0.0059037749564339655    0.005608000000000001     -985.8917903937728
0.0018074401562292383     0.005901182528669121     0.005608000000000002     -1037.8569564212287
0.0017911125479527206     0.005940420108836316     0.005608000000000001     -964.3556435905897
0.0018416362979472912     0.005937827681071471     0.005608                 -996.0807442866027
0.0018253086896707735     0.005977065261238665     0.005608000000000001     -926.5920441799195
0.0018758324396653443     0.005974472833473821     0.005608000000000001     -938.0706037479929
0.0018595048313888268     0.006013710413641016     0.005608000000000001     -872.600992161762
0.0019100285813833974     0.0060111179858761705    0.005608000000000002     -863.8265348053997
0.00189370097310688       0.006050355566043365     0.005608000000000001     -802.3824875361181
0.0019442247231014505     0.00604776313827852      0.005608000000000001     -773.3485374588226
0.0019278971148249328     0.006087000718445715     0.005608                 -607.0277534695019
0.0019784208648195036     0.00608440829068087      0.005608000000000001     -594.6352950680375
0.0017063926562400971     0.00590636738419881      0.005608000000000002     -1015.9833977326794
0.00174058879795815       0.0059430125366011595    0.005608                 -974.4632006520878
0.001774784939676203      0.00597965768900351      0.005608                 -933.8391281488455
0.0018089810813942562     0.00601630284140586      0.005608000000000002     -876.9876030381149
0.0018431772231123095     0.00605294799380821      0.005608000000000002     -803.9086253198986
0.0018773733648303624     0.006089593146210559     0.005608000000000002     -606.0032442169293
0.0016900650479635794     0.005945604964366005     0.005608                 -999.4316190663594
0.0017242611896816323     0.005982250116768355     0.005608                 -949.4357358116281
0.0017584573313996856     0.006018895269170705     0.005608000000000002     -889.7237376083256
0.0017926534731177385     0.006055540421573054     0.005608                 -813.7842867975357
0.0018268496148357918     0.006092185573975404     0.005608                 -613.0900263330241
0.001673737439687062      0.005984842544533199     0.005608000000000001     -968.3650738844792
0.0017079335814051153     0.00602148769693555      0.005608000000000002     -910.809395872393
0.0017421297231231681     0.006058132849337899     0.005608000000000001     -832.0094719690309
0.0017763258648412212     0.006094778001740249     0.005608                 -628.2880998177874
0.0016574098314105445     0.006024080124700394     0.005608000000000002     -922.7837621870381
0.0016916059731285976     0.006060725277102744     0.005608000000000001     -858.5841808343821
0.0017258021148466507     0.006097370429505094     0.005608000000000002     -651.5974646712186
0.001641082223134027      0.006063317704867588     0.005608000000000001     -862.687683974036
0.0016752783648520799     0.006099962857269938     0.005608                 -683.0181208933176
0.0016247546148575095     0.006102555285034783     0.005608000000000001     -732.3979909672039
0.0025000000000000005     0.006050000000000001     0.005608000000000002     37.97586448799378
0.0025000000000000005     0.006100000000000001     0.005608000000000002     -4.0584332266639517E-13
0.0024677362666874134     0.006061755674590462     0.005608000000000002     33.023470980748215
0.0024677362666874134     0.006111755674590462     0.005608000000000001     -19.530009873163856
0.0025000000000000005     0.006150000000000001     0.005608000000000002     -3.497238785539125E-13
0.0024677362666874125     0.006161755674590461     0.005608000000000001     -27.25949438585127
0.0025000000000000005     0.006200000000000001     0.005608000000000001     -2.885852094599973E-13
0.0024677362666874134     0.006211755674590461     0.005608000000000001     -34.988978898538676
0.0025000000000000005     0.00625                  0.005608000000000002     -2.2242731538464926E-13
0.0024677362666874134     0.0062617556745904615    0.005608000000000001     -42.718463411226026
0.0025000000000000005     0.0063                   0.005608000000000002     -1.5125019632786738E-13
0.0024677362666874125     0.006311755674590461     0.005608000000000001     -50.44794792391349
0.0025000000000000005     0.006350000000000001     0.005608000000000001     -7.505385228965272E-14
0.0024677362666874125     0.006361755674590461     0.005608                 -61.69909503741502
0.0025                    0.0064                   0.005608000000000001     7.467238691855826E-15
0.0024354725333748254     0.006073511349180923     0.005608000000000002     5.31851456439874
0.0024354725333748254     0.006123511349180922     0.005608000000000002     -43.373443800193485
0.0024354725333748254     0.0061735113491809225    0.005608000000000002     -58.83241282556838
0.0024354725333748254     0.006223511349180923     0.005608000000000002     -74.29138185094325
0.0024354725333748254     0.006273511349180923     0.005608000000000002     -89.75035087631818
0.0024354725333748254     0.006323511349180922     0.005608000000000002     -111.58942647693998
0.0024032088000622382     0.006085267023771384     0.005608000000000001     -26.151072517057344
0.0024032088000622382     0.006135267023771384     0.005608000000000002     -71.53030178108918
0.0024032088000622382     0.006185267023771384     0.005608000000000002     -94.71875531915157
0.0024032088000622382     0.006235267023771383     0.005608                 -117.90720885721373
0.002403208800062238      0.006285267023771383     0.005608                 -149.67099431857469
0.0023709450667496507     0.006097022698361845     0.005608000000000002     -61.385290263619936
0.0023709450667496507     0.006147022698361846     0.005608000000000002     -104.00058381585137
0.0023709450667496507     0.006197022698361845     0.005608000000000001     -134.91852186660088
0.0023709450667496502     0.0062470226983618446    0.005608                 -175.94379856231924
0.002338681333437063      0.006108778372952307     0.005608000000000002     -100.38413867528858
0.002338681333437063      0.006158778372952306     0.005608000000000001     -140.78428990447918
0.002338681333437063      0.006208778372952306     0.005608000000000002     -190.40783920817393
0.002306417600124476      0.006120534047542768     0.005608000000000001     -143.14761775206432
0.0023064176001244756     0.006170534047542767     0.005608                 -193.0631162561382
0.0022741538668118884     0.006132289722133228     0.005608000000000001     -204.95113101455254
0.0015000000000000002     0.006400000000000001     0.005608000000000001     -40.35316987569035
0.0015178220878367874     0.006357507897862114     0.005608000000000001     -121.28486581537628
0.001547619047619048      0.006400000000000002     0.005608000000000001     -3.8405217369552265E-13
0.001565441135455835      0.006357507897862114     0.005608000000000001     -107.9741430822883
0.0015356441756735743     0.006315015795724225     0.005608000000000002     -232.05417331087915
0.001583263223292622      0.006315015795724225     0.005608000000000001     -209.51935456494704
0.0015534662635103612     0.006272523693586336     0.005608                 -335.18286920540083
0.001601085311129409      0.006272523693586336     0.005608000000000001     -304.6356344479766
0.0015712883513471485     0.006230031591448448     0.005608000000000001     -430.6709534989411
0.0016189073989661962     0.006230031591448449     0.005608000000000001     -393.3229827313778
0.0015891104391839354     0.00618753948931056      0.005608000000000002     -518.5184261915005
0.001636729486802983      0.00618753948931056      0.005608000000000001     -475.58139941515043
0.0016069325270207224     0.006145047387172671     0.005608000000000001     -598.7252872830786
0.00165455157463977       0.006145047387172671     0.005608                 -553.8396241551002
0.0015952380952380957     0.006400000000000001     0.005608000000000002     -3.839764884360079E-13
0.0016130601830748824     0.006357507897862112     0.005608000000000001     -109.96612420022491
0.0016308822709116696     0.006315015795724225     0.005608000000000001     -213.50331680082022
0.0016487043587484567     0.006272523693586336     0.005608000000000002     -310.6115778017866
0.0016665264465852438     0.006230031591448448     0.005608000000000002     -401.2909072031246
0.001684348534422031      0.00618753948931056      0.005608000000000002     -487.32326066299834
0.001642857142857143      0.006400000000000001     0.005608000000000001     -3.801701376430793E-13
0.0016606792306939303     0.006357507897862113     0.005608000000000001     -111.95810531816164
0.0016785013185307172     0.006315015795724225     0.005608000000000002     -217.4872790366939
0.0016963234063675043     0.006272523693586336     0.005608000000000001     -316.5875211555972
0.0017141454942042912     0.006230031591448448     0.005608000000000001     -409.8480761578599
0.001690476190476191      0.006400000000000001     0.005608000000000002     -3.726331213167416E-13
0.001708298278312978      0.006357507897862113     0.005608000000000002     -113.95008643609825
0.0017261203661497648     0.006315015795724225     0.005608000000000002     -221.4712412725675
0.001743942453986552      0.006272523693586336     0.005608000000000001     -321.4140706396855
0.0017380952380952385     0.006400000000000001     0.005608000000000002     -3.6136543945699007E-13
0.0017559173259320254     0.006357507897862113     0.005608000000000001     -115.94206755403509
0.0017737394137688125     0.006315015795724225     0.005608000000000002     -222.02124410847506
0.001785714285714286      0.006400000000000001     0.005608000000000002     -3.4636709206382787E-13
0.001803536373551073      0.006357507897862113     0.005608000000000001     -111.66959656422809
0.0018333333333333337     0.006400000000000001     0.005608000000000002     23.377349638125356
0.0019576940746071935     0.006129492820583604     0.005608000000000001     -435.49806298713554
0.0019071703246126232     0.006132085248348448     0.005608000000000001     -440.5216904192557
0.0019369672843948839     0.006174577350486336     0.005608000000000002     -364.41023482761375
0.0018864435344003129     0.006177169778251181     0.005608000000000001     -379.7823965438964
0.0019162404941825736     0.0062196618803890685    0.005608000000000001     -290.3865987689465
0.001865716744188003      0.006222254308153914     0.005608000000000001     -315.9010950099397
0.0018955137039702637     0.006264746410291802     0.005608000000000002     -213.42715481113237
0.0018449899539756931     0.006267338838056647     0.005608000000000002     -248.8777858173862
0.0018747869137579537     0.006309830940194536     0.005608000000000002     -133.53190295417204
0.001824263163763383      0.00631242336795938      0.005608000000000001     -178.71246896623367
0.0018540601235456438     0.0063549154700972684    0.005608000000000002     -50.70084319806496
0.0018566465746180523     0.006134677676113292     0.005608                 -447.9249070106276
0.0018359197844057423     0.0061797622060160255    0.005608000000000002     -395.3035129229944
0.0018151929941934326     0.006224846735918758     0.005608000000000002     -339.5401111767637
0.0017944662039811226     0.006269931265821491     0.005608000000000002     -280.6347017719354
0.0018061228246234818     0.006137270103878137     0.005608000000000001     -463.2011826454783
0.0017853960344111721     0.006182354633780871     0.005608000000000002     -418.6976883455718
0.001764669244198862      0.0062274391636836035    0.005608000000000001     -371.05218638706634
0.0017555990746289114     0.0061398625316429825    0.005608000000000002     -486.3505173238093
0.0017348722844166013     0.006184947061545714     0.005608000000000002     -449.96492281162796
0.0017050753246343406     0.006142454959407826     0.005608000000000001     -517.3729110456188
0.0021666666666666666     0.0063999999999999994    0.005608000000000001     100.31986615832115
0.0021820219809731266     0.006361755674590461     0.005608000000000001     27.697322843580768
0.002214285714285714      0.0063999999999999994    0.005608000000000001     3.609602720404892E-13
0.0022296410285921747     0.00636175567459046      0.005608000000000001     -25.9930774994842
0.002197377295279587      0.0063235113491809216    0.005608000000000002     -10.839633515667366
0.002244996342898635      0.006323511349180922     0.005608000000000001     -55.2052448301953
0.0022127326095860472     0.006285267023771383     0.005608                 -51.10279268624965
0.002260351657205095      0.006285267023771383     0.005608000000000001     -87.63650199213266
0.0022280879238925078     0.0062470226983618446    0.005608000000000001     -93.09215466816516
0.0022757069715115554     0.006247022698361845     0.005608000000000001     -123.28684898529664
0.002243443238198968      0.006208778372952306     0.005608000000000002     -136.80771946141462
0.0022910622858180155     0.006208778372952306     0.005608000000000001     -162.15628580968695
0.002258798552505428      0.0061705340475427676    0.005608000000000001     -182.2494870659975
0.002261904761904762      0.0063999999999999994    0.005608000000000002     3.0849269276734515E-13
0.002277260076211222      0.006361755674590461     0.005608                 -33.83861352723318
0.0022926153905176824     0.006323511349180922     0.005608                 -70.8963168856933
0.0023079707048241425     0.006285267023771384     0.005608000000000002     -111.17311007537958
0.002323326019130603      0.0062470226983618446    0.005608000000000002     -154.66899309629235
0.0023095238095238095     0.0063999999999999994    0.005608                 2.5353297777767384E-13
0.00232487912383027       0.006361755674590461     0.005608                 -41.68414955498217
0.00234023443813673       0.006323511349180922     0.005608000000000002     -86.58738894119111
0.00235558975244319       0.006285267023771383     0.005608                 -134.70971815862652
0.002357142857142857      0.0063999999999999994    0.005608000000000001     1.9608112707147548E-13
0.0023724981714493176     0.006361755674590462     0.005608000000000002     -49.52968558273122
0.0023878534857557777     0.006323511349180922     0.005608000000000001     -102.27846099668909
0.0024047619047619048     0.0064                   0.005608000000000002     1.3613714064874977E-13
0.0024201172190683653     0.006361755674590461     0.005608000000000001     -57.37522161048021
0.0024523809523809524     0.0064                   0.005608000000000001     7.370101850949664E-14
0.0018809523809523814     0.006400000000000001     0.005608000000000002     68.92980901747461
0.0019016791711646912     0.006354915470097268     0.005608000000000001     -24.1901691136608
0.0019224059613770013     0.006309830940194534     0.005608000000000001     -114.58053910510154
0.0019431327515893112     0.006264746410291801     0.005608000000000001     -202.2413009568474
0.0019638595418016215     0.006219661880389069     0.005608000000000001     -287.17245466889733
0.001984586332013931      0.006174577350486335     0.005608000000000001     -369.374000241252
0.002005313122226241      0.006129492820583602     0.005608                 -479.7593361781544
0.0019285714285714288     0.006400000000000001     0.005608000000000002     86.74915177998078
0.0019492982187837389     0.006354915470097268     0.005608000000000002     -12.524301127856404
0.001970025008996049      0.006309830940194535     0.005608000000000002     -109.06814589599969
0.0019907517992083586     0.006264746410291802     0.005608000000000002     -202.8823825244473
0.0020114785894206687     0.006219661880389069     0.005608000000000002     -293.9670110131995
0.0020322053796329787     0.006174577350486336     0.005608000000000002     -411.4458763515539
0.0019761904761904764     0.0063999999999999994    0.005608000000000001     104.30833321578481
0.0019969172664027865     0.006354915470097268     0.005608000000000002     -1.1185944687549494
0.002017644056615096      0.006309830940194535     0.005608000000000002     -103.81591401360018
0.0020383708468274062     0.006264746410291801     0.005608                 -203.78362541874992
0.0020590976370397163     0.0062196618803890685    0.005608                 -328.4418580945512
0.002023809523809524      0.0064                   0.005608000000000002     121.60735332488547
0.002044536314021834      0.006354915470097268     0.005608000000000002     10.026950863643549
0.002065263104234144      0.006309830940194534     0.005608000000000001     -98.82384345790376
0.002085989894446454      0.0062647464102918       0.005608                 -230.74728140714663
0.0020714285714285717     0.0063999999999999994    0.005608000000000002     138.64621210728342
0.0020921553616408814     0.006354915470097266     0.005608000000000001     20.912334869339446
0.0021128821518531914     0.006309830940194534     0.005608000000000002     -118.36214628933946
0.002119047619047619      0.0063999999999999994    0.005608000000000001     155.42490956297902
0.002139774409259929      0.006354915470097266     0.005608                 8.713547258869802
0.002231906295098691      0.006125449517640034     0.005608000000000001     -278.2834200909822
0.0022165509807922303     0.0061636938430495725    0.005608000000000001     -257.21569332157344
0.0022011956664857698     0.006201938168459111     0.005608000000000001     -208.12801568049605
0.0021858403521793097     0.0062401824938686495    0.005608000000000001     -159.27365383085868
0.0021704850378728496     0.006278426819278189     0.005608000000000001     -110.65260777266226
0.002155129723566389      0.006316671144687727     0.005608000000000001     -62.264877505907464
0.0021896587233854927     0.006118609313146841     0.005608000000000002     -331.48624349142517
0.002174303409079032      0.006156853638556379     0.005608                 -307.37170640455446
0.002158948094772572      0.006195097963965918     0.005608                 -265.83689570369677
0.002143592780466112      0.006233342289375457     0.005608000000000002     -224.53540079427967
0.002128237466159652      0.0062715866147849955    0.005608000000000002     -183.46722167630418
0.0021474111516722946     0.006111769108653646     0.005608                 -384.99373186481205
0.0021320558373658345     0.006150013434063185     0.005608                 -357.7954170821271
0.0021167005230593745     0.006188257759472724     0.005608000000000002     -323.81347332148954
0.002101345208752914      0.006226502084882263     0.005608                 -290.0648453522936
0.0021051635799590974     0.006104928904160452     0.005608000000000001     -438.80588521114225
0.0020898082656526373     0.0061431732295699915    0.005608000000000002     -408.4868253542911
0.0020744529513461764     0.006181417554979529     0.005608000000000001     -382.05774853387436
0.0020629160082458993     0.006098088699667258     0.005608000000000002     -492.9227035304159
0.0020475606939394392     0.0061363330250767964    0.005608000000000001     -459.44593122104845
0.0020206684365327012     0.006091248495174064     0.005608000000000001     -547.3441868226341
0.0016956528655186047     0.005827668603650346     0.005608000000000001     -1032.9525061622269
0.0016793252572420872     0.005866906183817541     0.005608000000000001     -1025.4365484343907
0.0016629976489655697     0.005906143763984735     0.005608000000000001     -1018.5969071866116
0.001646670040689052      0.00594538134415193      0.005608000000000001     -996.3266080064869
0.0016303424324125347     0.005984618924319124     0.005608000000000001     -958.6256508940169
0.0016140148241360172     0.006023856504486319     0.005608000000000001     -905.4940358492009
0.0015976872158594995     0.006063094084653513     0.005608                 -886.64975765895
0.0016522578582440774     0.005827444983436272     0.005608000000000002     -1030.0564966603647
0.0016359302499675597     0.005866682563603467     0.005608                 -1015.5632517249358
0.0016196026416910423     0.005905920143770661     0.005608                 -1013.617329489272
0.001603275033414525      0.005945157723937856     0.005608000000000002     -996.2407493212614
0.0015869474251380075     0.00598439530410505      0.005608000000000002     -963.4335112209056
0.00157061981686149       0.006023632884272245     0.005608000000000002     -954.4106844095604
0.00160886285096955       0.005827221363222197     0.005608                 -1036.1545818611435
0.0015925352426930327     0.005866458943389391     0.005608                 -1015.2204450490433
0.0015762076344165155     0.005905696523556586     0.005608000000000002     -1018.1682418254936
0.0015598800261399978     0.00594493410372378      0.005608                 -1005.6853806695983
0.00154355241786348       0.005984171683890975     0.005608                 -1006.6351478956833
0.0015654678436950228     0.0058269977430081225    0.005608000000000001     -1051.246761764564
0.0015491402354185055     0.005866235323175317     0.005608000000000002     -1024.4081284067129
0.0015328126271419878     0.005905472903342511     0.005608000000000001     -1032.2496441952778
0.0015164850188654703     0.005944710483509705     0.005608                 -1043.3231481173177
0.0015220728364204955     0.005826774122794047     0.005608000000000002     -1075.333036370625
0.001505745228143978      0.005866011702961241     0.005608000000000001     -1043.126301797945
0.0014894176198674606     0.005905249283128436     0.005608000000000002     -1064.474685074464
0.0014786778291459685     0.005826550502579972     0.005608000000000001     -1108.4134056793262
0.0014623502208694508     0.005865788082747167     0.005608                 -1070.089758767123
0.001435282821871441      0.005826326882365898     0.005608000000000001     -1136.632762455197
0.001166666666666667      0.0064                   0.005608000000000001     -159.9872967371365
0.001186763237473306      0.006360807305744668     0.005608000000000001     -240.82617387166155
0.0012142857142857146     0.006400000000000001     0.005608000000000001     -153.00130958273874
0.0012343822850923538     0.006360807305744668     0.005608000000000001     -249.80306438850147
0.0012068598082799452     0.006321614611489335     0.005608000000000002     -336.11789868016274
0.0012544788558989928     0.006321614611489335     0.005608000000000001     -338.4520708030285
0.0012269563790865841     0.006282421917234        0.005608                 -423.0506758169567
0.0012745754267056318     0.006282421917234002     0.005608000000000001     -418.9483288263205
0.0012470529498932231     0.006243229222978668     0.005608000000000001     -501.624505282043
0.001294671997512271      0.006243229222978669     0.005608000000000001     -491.29183845837713
0.0012671495206998623     0.006204036528723335     0.005608000000000002     -571.8393870754215
0.00131476856831891       0.006204036528723335     0.005608000000000001     -555.482599699199
0.0012872460915065013     0.006164843834468002     0.005608000000000001     -633.6953211970936
0.001334865139125549      0.006164843834468002     0.005608                 -602.3574327864886
0.0013073426623131403     0.006125651140212669     0.005608000000000001     -718.0810212881808
0.0012619047619047623     0.0064                   0.005608000000000002     -144.46309212610555
0.0012820013327114012     0.006360807305744667     0.005608                 -239.6363525877206
0.0013020979035180402     0.006321614611489334     0.005608                 -326.6568646580998
0.0013221944743246794     0.006282421917234001     0.005608000000000002     -405.52462833724326
0.0013422910451313184     0.006243229222978668     0.005608000000000002     -476.23964362515187
0.0013623876159379574     0.006204036528723335     0.005608000000000002     -523.6682108534864
0.00130952380952381       0.0064                   0.005608                 -136.82738209256138
0.0013296203803304487     0.006360807305744668     0.005608                 -230.37214821002902
0.0013497169511370879     0.006321614611489335     0.005608000000000002     -315.7641659362596
0.001369813521943727      0.006282421917234002     0.005608                 -393.00343527125597
0.0013899100927503658     0.006243229222978668     0.005608                 -440.3328324954889
0.0013571428571428573     0.006400000000000001     0.005608000000000001     -130.0941794821084
0.0013772394279494965     0.006360807305744668     0.005608000000000002     -222.01045125542709
0.0013973359987561355     0.006321614611489335     0.005608000000000001     -305.7739746375104
0.0014174325695627745     0.006282421917234001     0.005608                 -352.3512977124943
0.0014047619047619052     0.006400000000000001     0.005608000000000002     -124.26348429474474
0.001424858475568544      0.006360807305744668     0.005608000000000001     -214.55126172391576
0.0014449550463751831     0.006321614611489335     0.005608000000000002     -259.7236065045043
0.0014523809523809526     0.006400000000000001     0.005608000000000001     -119.3352965304704
0.0014724775231875916     0.006360807305744668     0.005608                 -162.44975887151764
0.001579410050208314      0.006105854692917339     0.005608000000000001     -767.2345972435571
0.001561587962371527      0.006148346795055227     0.005608000000000001     -632.9120982501876
0.0015437658745347397     0.006190838897193115     0.005608000000000001     -547.4152494303254
0.0015259437866979527     0.006233330999331003     0.005608000000000001     -453.06610900813035
0.0015081216988611658     0.006275823101468891     0.005608000000000001     -349.8646769836006
0.0014902996110243787     0.00631831520360678      0.005608000000000001     -237.81095335673857
0.0015340654855591183     0.006109154100799893     0.005608000000000002     -740.4525206334627
0.0015162433977223312     0.006151646202937781     0.005608                 -613.5445895522558
0.001498421309885544      0.00619413830507567      0.005608                 -529.1271101294815
0.0014805992220487572     0.006236630407213558     0.005608000000000002     -435.8573391043733
0.00146277713421197       0.006279122509351446     0.005608000000000002     -333.7352764769325
0.0014887209209099228     0.006112453508682448     0.005608                 -719.3737371916884
0.0014708988330731356     0.006154945610820337     0.005608                 -599.8890506806908
0.0014530767452363487     0.0061974377129582255    0.005608000000000002     -516.5509406550038
0.0014352546573995616     0.006239929815096114     0.005608                 -424.3605390269837
0.0014433763562607272     0.006115752916565003     0.005608000000000001     -703.9982469182344
0.00142555426842394       0.006158245018702891     0.005608000000000002     -591.9454816354917
0.001407732180587153      0.00620073712084078      0.005608000000000001     -509.6867410068927
0.0013980317916115316     0.006119052324447558     0.005608000000000002     -694.3260498131003
0.0013802097037747445     0.006161544426585446     0.005608000000000001     -589.7138824166589
0.001352687226962336      0.006122351732330114     0.005608000000000001     -690.3571458762865
0.0013256198279643261     0.006082890531948845     0.005608000000000001     -821.5608341609898
0.0013709643926135217     0.006079591124066289     0.005608000000000001     -826.4432523294672
0.001343896993615512      0.00604012992368502      0.005608000000000002     -920.1604230094946
0.0013892415582647075     0.006036830515802465     0.005608000000000001     -916.0479548837202
0.0013621741592666978     0.005997369315421195     0.005608                 -997.6303422308284
0.0014075187239158933     0.005994069907538641     0.005608000000000001     -985.0864361590512
0.0013804513249178836     0.005954608707157371     0.005608000000000001     -1053.970591824991
0.0014257958895670792     0.005951309299274817     0.005608000000000001     -1033.5586961554582
0.0013987284905690694     0.005911848098893547     0.005608000000000002     -1089.1811717919836
0.001444073055218265      0.005908548691010991     0.005608000000000001     -1061.464734872944
0.0014170056562202553     0.005869087490629722     0.005608000000000001     -1103.2620821318044
0.0014163089572627172     0.006076291716183733     0.005608                 -837.0389193321971
0.0014345861229139033     0.00603353110791991      0.005608                 -926.9004798051081
0.001452863288565089      0.005990770499656086     0.005608000000000002     -996.1958189990959
0.001471140454216275      0.005948009891392261     0.005608000000000002     -1044.9249369141614
0.0014616535219119128     0.006072992308301179     0.005608                 -853.3292028452022
0.0014799306875630989     0.006030231700037355     0.005608000000000002     -943.4476212367703
0.0014982078532142845     0.00598747109177353      0.005608                 -1012.9998183494158
0.0015069980865611086     0.006069692900418625     0.005608000000000002     -875.314102868481
0.0015252752522122944     0.006026932292154799     0.005608000000000001     -965.6893791787061
0.0015523426512103042     0.006066393492536069     0.005608000000000001     -902.993619402034
0.0013918955734046172     0.005828918482289261     0.005608000000000001     -1126.7076019638666