% Model:              stripline_filter_simple_decomp_new_mesh.mph
% Version:            COMSOL 6.1.0.252
% Date:               May 18 2023, 21:19
% Dimension:          3
% Nodes:              1688
% Expressions:        1
% Description:        Surface
% X                       Y                        Z                        imag(emw.Ey)
0.001739047872793132      0.005827892223864421     0.005608000000000001     1951.3294877046937
0.001773244014511185      0.005864537376266771     0.005608000000000001     1639.152040052819
0.0017227202645166144     0.005867129804031616     0.005608000000000001     1668.161075947958
0.0017569164062346675     0.0059037749564339655    0.005608000000000001     1360.7087316210723
0.0018074401562292383     0.005901182528669121     0.005608000000000002     1333.2059625094666
0.0017911125479527206     0.005940420108836316     0.005608000000000001     1060.852205140318
0.0018416362979472912     0.005937827681071471     0.005608                 1044.3377622198127
0.0018253086896707735     0.005977065261238665     0.005608000000000001     776.4284685812368
0.0018758324396653443     0.005974472833473821     0.005608000000000001     772.5474391838574
0.0018595048313888268     0.006013710413641016     0.005608000000000001     507.43752194382876
0.0019100285813833974     0.0060111179858761705    0.005608000000000002     517.8349934016014
0.00189370097310688       0.006050355566043365     0.005608000000000001     253.87936522809343
0.0019442247231014505     0.00604776313827852      0.005608000000000001     280.20042487304545
0.0019278971148249328     0.006087000718445715     0.005608                 -27.019078284444888
0.0019784208648195036     0.00608440829068087      0.005608000000000001     27.3303572157816
0.0017063926562400971     0.00590636738419881      0.005608000000000002     1380.4135840449148
0.00174058879795815       0.0059430125366011595    0.005608                 1071.512061667385
0.001774784939676203      0.00597965768900351      0.005608                 771.183074544957
0.0018089810813942562     0.00601630284140586      0.005608000000000002     486.28687734420237
0.0018431772231123095     0.00605294799380821      0.005608000000000002     216.8234700651201
0.0018773733648303624     0.006089593146210559     0.005608000000000002     -76.62610350016362
0.0016900650479635794     0.005945604964366005     0.005608                 1090.3586537304989
0.0017242611896816323     0.005982250116768355     0.005608                 779.2482423395361
0.0017584573313996856     0.006018895269170705     0.005608000000000002     478.4467945754343
0.0017926534731177385     0.006055540421573054     0.005608                 193.07813673300507
0.0018268496148357918     0.006092185573975404     0.005608                 -109.54414240473156
0.001673737439687062      0.005984842544533199     0.005608000000000001     797.9962850047114
0.0017079335814051153     0.00602148769693555      0.005608000000000002     483.9172736375252
0.0017421297231231681     0.006058132849337899     0.005608000000000001     182.64336523174927
0.0017763258648412212     0.006094778001740249     0.005608                 -125.77319499814845
0.0016574098314105445     0.006024080124700394     0.005608000000000002     503.32647786755155
0.0016916059731285976     0.006060725277102744     0.005608000000000001     185.51915556135214
0.0017258021148466507     0.006097370429505094     0.005608000000000002     -125.3132612804144
0.001641082223134027      0.006063317704867588     0.005608000000000001     206.34923231902053
0.0016752783648520799     0.006099962857269938     0.005608                 -108.16434125152908
0.0016247546148575095     0.006102555285034783     0.005608000000000001     -71.93103031853255
0.0025000000000000005     0.006050000000000001     0.005608000000000002     6.528259423960427
0.0025000000000000005     0.006100000000000001     0.005608000000000002     3.430359616913197E-12
0.0024677362666874134     0.006061755674590462     0.005608000000000002     7.246057313627023
0.0024677362666874134     0.006111755674590462     0.005608000000000001     -11.014013211468523
0.0025000000000000005     0.006150000000000001     0.005608000000000002     2.9377516317554752E-12
0.0024677362666874125     0.006161755674590461     0.005608000000000001     -19.364151481376766
0.0025000000000000005     0.006200000000000001     0.005608000000000001     2.413074953014242E-12
0.0024677362666874134     0.006211755674590461     0.005608000000000001     -27.71428975128505
0.0025000000000000005     0.00625                  0.005608000000000002     1.8563295806894955E-12
0.0024677362666874134     0.0062617556745904615    0.005608000000000001     -36.06442802119341
0.0025000000000000005     0.0063                   0.005608000000000002     1.2675155147812378E-12
0.0024677362666874125     0.006311755674590461     0.005608000000000001     -44.4145662911018
0.0025000000000000005     0.006350000000000001     0.005608000000000001     6.466327552894683E-13
0.0024677362666874125     0.006361755674590461     0.005608                 -45.77814677735116
0.0025                    0.0064                   0.005608000000000001     -2.151012740597824
0.0024354725333748254     0.006073511349180923     0.005608000000000002     0.938642493145375
0.0024354725333748254     0.006123511349180922     0.005608000000000002     -25.09273913515844
0.0024354725333748254     0.0061735113491809225    0.005608000000000002     -41.793015674974455
0.0024354725333748254     0.006223511349180923     0.005608000000000002     -58.493292214790415
0.0024354725333748254     0.006273511349180923     0.005608000000000002     -75.19356875460664
0.0024354725333748254     0.006323511349180922     0.005608000000000002     -78.14942219817152
0.0024032088000622382     0.006085267023771384     0.005608000000000001     -9.129855325501234
0.0024032088000622382     0.006135267023771384     0.005608000000000002     -42.236177771066124
0.0024032088000622382     0.006185267023771384     0.005608000000000002     -67.28659258078986
0.0024032088000622382     0.006235267023771383     0.005608                 -92.33700739051385
0.002403208800062238      0.006285267023771383     0.005608                 -99.26483900305901
0.0023709450667496507     0.006097022698361845     0.005608000000000002     -22.959436142314043
0.0023709450667496507     0.006147022698361846     0.005608000000000002     -62.444329119191565
0.0023709450667496507     0.006197022698361845     0.005608000000000001     -95.8448821988232
0.0023709450667496502     0.0062470226983618446    0.005608                 -109.12439719201333
0.002338681333437063      0.006108778372952307     0.005608000000000002     -40.55009995729262
0.002338681333437063      0.006158778372952306     0.005608000000000001     -85.7171931795352
0.002338681333437063      0.006208778372952306     0.005608000000000002     -107.72809676503499
0.002306417600124476      0.006120534047542768     0.005608000000000001     -61.901846770436535
0.0023064176001244756     0.006170534047542767     0.005608                 -95.07593772212411
0.0022741538668118884     0.006132289722133228     0.005608000000000001     -76.17048885018389
0.0015000000000000002     0.006400000000000001     0.005608000000000001     -999.8622372480398
0.0015178220878367874     0.006357507897862114     0.005608000000000001     -890.0996213977458
0.001547619047619048      0.006400000000000002     0.005608000000000001     -1074.6707915810848
0.001565441135455835      0.006357507897862114     0.005608000000000001     -938.4809404016539
0.0015356441756735743     0.006315015795724225     0.005608000000000002     -764.2325858801344
0.001583263223292622      0.006315015795724225     0.005608000000000001     -799.5271260268494
0.0015534662635103612     0.006272523693586336     0.005608                 -635.3540273951835
0.001601085311129409      0.006272523693586336     0.005608000000000001     -657.8093484566703
0.0015712883513471485     0.006230031591448448     0.005608000000000001     -503.4639459428929
0.0016189073989661962     0.006230031591448449     0.005608000000000001     -513.3276076911168
0.0015891104391839354     0.00618753948931056      0.005608000000000002     -368.56234152326294
0.001636729486802983      0.00618753948931056      0.005608000000000001     -366.0819037301888
0.0016069325270207224     0.006145047387172671     0.005608000000000001     -230.64921413629327
0.00165455157463977       0.006145047387172671     0.005608                 -210.61694027682174
0.0015952380952380957     0.006400000000000001     0.005608000000000002     -1101.3162757643508
0.0016130601830748824     0.006357507897862112     0.005608000000000001     -956.5614137348209
0.0016308822709116696     0.006315015795724225     0.005608000000000001     -809.0425885099164
0.0016487043587484567     0.006272523693586336     0.005608000000000002     -658.7598000896373
0.0016665264465852438     0.006230031591448448     0.005608000000000002     -505.71304847398414
0.001684348534422031      0.00618753948931056      0.005608000000000002     -350.0359651809591
0.001642857142857143      0.006400000000000001     0.005608000000000001     -1101.924097382214
0.0016606792306939303     0.006357507897862113     0.005608000000000001     -948.6042245025841
0.0016785013185307172     0.006315015795724225     0.005608000000000002     -792.5203884275796
0.0016963234063675043     0.006272523693586336     0.005608000000000001     -633.672589157201
0.0017141454942042912     0.006230031591448448     0.005608000000000001     -476.69155310552037
0.001690476190476191      0.006400000000000001     0.005608000000000002     -1076.4942564346734
0.001708298278312978      0.006357507897862113     0.005608000000000002     -914.6093727049437
0.0017261203661497648     0.006315015795724225     0.005608000000000002     -749.9605257798391
0.001743942453986552      0.006272523693586336     0.005608000000000001     -590.5837040505053
0.0017380952380952385     0.006400000000000001     0.005608000000000002     -1025.0267529217285
0.0017559173259320254     0.006357507897862113     0.005608000000000001     -854.576858341899
0.0017737394137688125     0.006315015795724225     0.005608000000000002     -691.7124180159138
0.001785714285714286      0.006400000000000001     0.005608000000000002     -947.52158684338
0.001803536373551073      0.006357507897862113     0.005608000000000001     -780.0776950017461
0.0018333333333333337     0.006400000000000001     0.005608000000000002     -864.6938349289239
0.0019576940746071935     0.006129492820583604     0.005608000000000001     -132.0947052451795
0.0019071703246126232     0.006132085248348448     0.005608000000000001     -186.5883012349233
0.0019369672843948839     0.006174577350486336     0.005608000000000002     -253.68361305819744
0.0018864435344003129     0.006177169778251181     0.005608000000000001     -304.78975921326673
0.0019162404941825736     0.0062196618803890685    0.005608000000000001     -376.16740228256765
0.001865716744188003      0.006222254308153914     0.005608000000000001     -424.39652893795017
0.0018955137039702637     0.006264746410291802     0.005608000000000002     -499.5460729182901
0.0018449899539756931     0.006267338838056647     0.005608000000000002     -545.4086104089738
0.0018747869137579537     0.006309830940194536     0.005608000000000002     -623.819624965365
0.001824263163763383      0.00631242336795938      0.005608000000000001     -667.8260036263375
0.0018540601235456438     0.0063549154700972684    0.005608000000000002     -748.9880584237924
0.0018566465746180523     0.006134677676113292     0.005608                 -230.43779136677654
0.0018359197844057423     0.0061797622060160255    0.005608000000000002     -346.2358347718553
0.0018151929941934326     0.006224846735918758     0.005608000000000002     -463.4391899232743
0.0017944662039811226     0.006269931265821491     0.005608000000000002     -582.0478568210335
0.0018061228246234818     0.006137270103878137     0.005608000000000001     -254.21987070718637
0.0017853960344111721     0.006182354633780871     0.005608000000000002     -367.6144995390007
0.001764669244198862      0.0062274391636836035    0.005608000000000001     -482.4144401171552
0.0017555990746289114     0.0061398625316429825    0.005608000000000002     -257.934539256153
0.0017348722844166013     0.006184947061545714     0.005608000000000002     -368.92575351470293
0.0017050753246343406     0.006142454959407826     0.005608000000000001     -241.58179701367675
0.0021666666666666666     0.0063999999999999994    0.005608000000000001     -488.5392647235778
0.0021820219809731266     0.006361755674590461     0.005608000000000001     -426.47316967633594
0.002214285714285714      0.0063999999999999994    0.005608000000000001     -454.1856959770746
0.0022296410285921747     0.00636175567459046      0.005608000000000001     -386.9046620813119
0.002197377295279587      0.0063235113491809216    0.005608000000000002     -358.63421268255775
0.002244996342898635      0.006323511349180922     0.005608000000000001     -321.46346904485955
0.0022127326095860472     0.006285267023771383     0.005608                 -293.4218215748234
0.002260351657205095      0.006285267023771383     0.005608000000000001     -257.8621168677171
0.0022280879238925078     0.0062470226983618446    0.005608000000000001     -230.8359963531334
0.0022757069715115554     0.006247022698361845     0.005608000000000001     -196.10060554988502
0.002243443238198968      0.006208778372952306     0.005608000000000002     -170.87673701748753
0.0022910622858180155     0.006208778372952306     0.005608000000000001     -136.17893509136312
0.002258798552505428      0.0061705340475427676    0.005608000000000001     -113.54404356788568
0.002261904761904762      0.0063999999999999994    0.005608000000000002     -397.692530885758
0.002277260076211222      0.006361755674590461     0.005608                 -332.07200479018525
0.0022926153905176824     0.006323511349180922     0.005608                 -268.29131955392273
0.0023079707048241425     0.006285267023771384     0.005608000000000002     -206.35047517697006
0.002323326019130603      0.0062470226983618446    0.005608000000000002     -146.24947165932815
0.0023095238095238095     0.0063999999999999994    0.005608                 -333.8043871312429
0.00232487912383027       0.006361755674590461     0.005608                 -269.84436883586005
0.00234023443813673       0.006323511349180922     0.005608000000000002     -207.7241913997873
0.00235558975244319       0.006285267023771383     0.005608                 -147.4438548230247
0.002357142857142857      0.0063999999999999994    0.005608000000000001     -262.5212647135289
0.0023724981714493176     0.006361755674590462     0.005608000000000002     -200.22175421833606
0.0023878534857557777     0.006323511349180922     0.005608000000000001     -139.7620845824532
0.0024047619047619048     0.0064                   0.005608000000000002     -183.8431636326165
0.0024201172190683653     0.006361755674590461     0.005608000000000001     -123.20416093761332
0.0024523809523809524     0.0064                   0.005608000000000001     -97.7700838885055
0.0018809523809523814     0.006400000000000001     0.005608000000000002     -880.727172324069
0.0019016791711646912     0.006354915470097268     0.005608000000000001     -752.5591797968077
0.0019224059613770013     0.006309830940194534     0.005608000000000001     -624.7756383459111
0.0019431327515893112     0.006264746410291801     0.005608000000000001     -497.37654797137907
0.0019638595418016215     0.006219661880389069     0.005608000000000001     -370.3619086732118
0.001984586332013931      0.006174577350486335     0.005608000000000001     -243.73172045140888
0.002005313122226241      0.006129492820583602     0.005608                 -147.99562570645685
0.0019285714285714288     0.006400000000000001     0.005608000000000002     -859.8264247066335
0.0019492982187837389     0.006354915470097268     0.005608000000000002     -727.9856381083621
0.001970025008996049      0.006309830940194535     0.005608000000000002     -596.5293025864551
0.0019907517992083586     0.006264746410291802     0.005608000000000002     -465.45741814091264
0.0020114785894206687     0.006219661880389069     0.005608000000000002     -334.7699847717349
0.0020322053796329787     0.006174577350486336     0.005608000000000002     -234.52258884946417
0.0019761904761904764     0.0063999999999999994    0.005608000000000001     -820.020191918462
0.0019969172664027865     0.006354915470097268     0.005608000000000002     -684.5066112491804
0.002017644056615096      0.006309830940194535     0.005608000000000002     -549.377481656263
0.0020383708468274062     0.006264746410291801     0.005608                 -414.6328031397103
0.0020590976370397163     0.0062196618803890685    0.005608                 -308.65018874702326
0.002023809523809524      0.0064                   0.005608000000000002     -761.3084739595546
0.002044536314021834      0.006354915470097268     0.005608000000000002     -622.1220992192626
0.002065263104234144      0.006309830940194534     0.005608000000000001     -483.32017555533463
0.002085989894446454      0.0062647464102918       0.005608                 -370.37842539913333
0.0020714285714285717     0.0063999999999999994    0.005608000000000002     -683.6912708299113
0.0020921553616408814     0.006354915470097266     0.005608000000000001     -540.8321020186086
0.0021128821518531914     0.006309830940194534     0.005608000000000002     -419.70729880579444
0.002119047619047619      0.0063999999999999994    0.005608000000000001     -587.1685825295318
0.002139774409259929      0.006354915470097266     0.005608                 -456.6368089670069
0.002231906295098691      0.006125449517640034     0.005608000000000001     -94.21839741489185
0.0022165509807922303     0.0061636938430495725    0.005608000000000001     -151.32489523594637
0.0022011956664857698     0.006201938168459111     0.005608000000000001     -208.76073402055965
0.0021858403521793097     0.0062401824938686495    0.005608000000000001     -269.6098637179511
0.0021704850378728496     0.006278426819278189     0.005608000000000001     -333.87228432812094
0.002155129723566389      0.006316671144687727     0.005608000000000001     -401.5479958510691
0.0021896587233854927     0.006118609313146841     0.005608000000000002     -102.83966457345704
0.002174303409079032      0.006156853638556379     0.005608                 -180.7829555735495
0.002158948094772572      0.006195097963965918     0.005608                 -240.73158364297427
0.002143592780466112      0.006233342289375457     0.005608000000000002     -304.09350262517734
0.002128237466159652      0.0062715866147849955    0.005608000000000002     -370.86871252015885
0.0021474111516722946     0.006111769108653646     0.005608                 -99.61047272988952
0.0021320558373658345     0.006150013434063185     0.005608                 -198.2300230294506
0.0021167005230593745     0.006188257759472724     0.005608000000000002     -260.69144038368705
0.002101345208752914      0.006226502084882263     0.005608                 -326.56614865070185
0.0021051635799590974     0.006104928904160452     0.005608000000000001     -84.53082188418887
0.0020898082656526373     0.0061431732295699915    0.005608000000000002     -203.66609760364958
0.0020744529513461764     0.006181417554979529     0.005608000000000001     -268.6403042426978
0.0020629160082458993     0.006098088699667258     0.005608000000000002     -57.600712036355645
0.0020475606939394392     0.0061363330250767964    0.005608000000000001     -197.09117929614706
0.0020206684365327012     0.006091248495174064     0.005608000000000001     -18.820143186389714
0.0016956528655186047     0.005827668603650346     0.005608000000000001     1986.8921377737267
0.0016793252572420872     0.005866906183817541     0.005608000000000001     1662.878837543256
0.0016629976489655697     0.005906143763984735     0.005608000000000001     1374.8603116786817
0.001646670040689052      0.00594538134415193      0.005608000000000001     1085.2940583655254
0.0016303424324125347     0.005984618924319124     0.005608000000000001     794.1800776037875
0.0016140148241360172     0.006023856504486319     0.005608000000000001     501.51836939346794
0.0015976872158594995     0.006063094084653513     0.005608                 238.38972160389983
0.0016522578582440774     0.005827444983436272     0.005608000000000002     2009.718306168672
0.0016359302499675597     0.005866682563603467     0.005608                 1669.7338382247676
0.0016196026416910423     0.005905920143770661     0.005608                 1380.4675609896958
0.001603275033414525      0.005945157723937856     0.005608000000000002     1089.6535563060393
0.0015869474251380075     0.00598439530410505      0.005608000000000002     797.2918241738024
0.00157061981686149       0.006023632884272245     0.005608000000000002     532.7641105688958
0.00160886285096955       0.005827221363222197     0.005608                 2032.2419152976686
0.0015925352426930327     0.005866458943389391     0.005608                 1680.8891059169566
0.0015762076344165155     0.005905696523556586     0.005608000000000002     1390.3750773113838
0.0015598800261399978     0.00594493410372378      0.005608                 1098.3133212572293
0.00154355241786348       0.005984171683890975     0.005608                 831.3810746328675
0.0015654678436950228     0.0058269977430081225    0.005608000000000001     2054.4629651607183
0.0015491402354185055     0.005866235323175317     0.005608000000000002     1696.34464061982
0.0015328126271419878     0.005905472903342511     0.005608000000000001     1404.5828606437467
0.0015164850188654703     0.005944710483509705     0.005608                 1134.2406137958153
0.0015220728364204955     0.005826774122794047     0.005608000000000002     2076.3814557578216
0.001505745228143978      0.005866011702961241     0.005608000000000001     1716.100442333357
0.0014894176198674606     0.005905249283128436     0.005608000000000002     1441.342728057739
0.0014786778291459685     0.005826550502579972     0.005608000000000001     2097.9973870889767
0.0014623502208694508     0.005865788082747167     0.005608                 1752.687417418637
0.001435282821871441      0.005826326882365898     0.005608000000000001     2112.7083577243507
0.001166666666666667      0.0064                   0.005608000000000001     -856.8643944884851
0.001186763237473306      0.006360807305744668     0.005608000000000001     -789.4709203551209
0.0012142857142857146     0.006400000000000001     0.005608000000000001     -959.6700615089812
0.0012343822850923538     0.006360807305744668     0.005608000000000001     -866.8008605743241
0.0012068598082799452     0.006321614611489335     0.005608000000000002     -708.4319395404686
0.0012544788558989928     0.006321614611489335     0.005608000000000001     -768.4595238162459
0.0012269563790865841     0.006282421917234        0.005608                 -620.8971683073329
0.0012745754267056318     0.006282421917234002     0.005608000000000001     -664.6460512347467
0.0012470529498932231     0.006243229222978668     0.005608000000000001     -526.8666066557133
0.001294671997512271      0.006243229222978669     0.005608000000000001     -555.3604428298265
0.0012671495206998623     0.006204036528723335     0.005608000000000002     -426.3402545856102
0.00131476856831891       0.006204036528723335     0.005608000000000001     -440.60269860148514
0.0012872460915065013     0.006164843834468002     0.005608000000000001     -319.31811209702306
0.001334865139125549      0.006164843834468002     0.005608                 -297.20274286628285
0.0013073426623131403     0.006125651140212669     0.005608000000000001     -189.46023801938023
0.0012619047619047623     0.0064                   0.005608000000000002     -1024.4151052754694
0.0012820013327114012     0.006360807305744667     0.005608                 -919.7949531319118
0.0013020979035180402     0.006321614611489334     0.005608                 -809.7026651649333
0.0013221944743246794     0.006282421917234001     0.005608000000000002     -694.1382413745339
0.0013422910451313184     0.006243229222978668     0.005608000000000002     -573.1016817607133
0.0013623876159379574     0.006204036528723335     0.005608000000000002     -430.15047266047117
0.00130952380952381       0.0064                   0.005608                 -1064.1958903579691
0.0013296203803304487     0.006360807305744668     0.005608                 -947.8247870055113
0.0013497169511370879     0.006321614611489335     0.005608000000000002     -825.9815478296325
0.001369813521943727      0.006282421917234002     0.005608                 -698.6661728303326
0.0013899100927503658     0.006243229222978668     0.005608                 -556.0255632429557
0.0013571428571428573     0.006400000000000001     0.005608000000000001     -1079.0124167564804
0.0013772394279494965     0.006360807305744668     0.005608000000000002     -950.8903621951226
0.0013973359987561355     0.006321614611489335     0.005608000000000001     -817.2961718103431
0.0014174325695627745     0.006282421917234001     0.005608                 -674.8280146137362
0.0014047619047619052     0.006400000000000001     0.005608000000000002     -1068.8646844710038
0.001424858475568544      0.006360807305744668     0.005608000000000001     -928.9916787007451
0.0014449550463751831     0.006321614611489335     0.005608000000000002     -786.5578267728125
0.0014523809523809526     0.006400000000000001     0.005608000000000001     -1033.752693501538
0.0014724775231875916     0.006360807305744668     0.005608                 -891.2149997201848
0.001579410050208314      0.006105854692917339     0.005608000000000001     -133.76217311909082
0.001561587962371527      0.006148346795055227     0.005608000000000001     -301.5352375178829
0.0015437658745347397     0.006190838897193115     0.005608000000000001     -427.8066080765137
0.0015259437866979527     0.006233330999331003     0.005608000000000001     -550.8188958958399
0.0015081216988611658     0.006275823101468891     0.005608000000000001     -670.5721009758613
0.0014902996110243787     0.00631831520360678      0.005608000000000001     -787.0662233165782
0.0015340654855591183     0.006109154100799893     0.005608000000000002     -186.08853248890048
0.0015162433977223312     0.006151646202937781     0.005608                 -336.3790422762878
0.001498421309885544      0.00619413830507567      0.005608                 -454.5401849258126
0.0014805992220487572     0.006236630407213558     0.005608000000000002     -569.4422448360328
0.00146277713421197       0.006279122509351446     0.005608000000000002     -681.0852220069487
0.0014887209209099228     0.006112453508682448     0.005608                 -221.402239031036
0.0014708988330731356     0.006154945610820337     0.005608                 -351.050687621986
0.0014530767452363487     0.0061974377129582255    0.005608000000000002     -461.1016023624052
0.0014352546573995616     0.006239929815096114     0.005608                 -567.8934343635195
0.0014433763562607272     0.006115752916565003     0.005608000000000001     -239.70329274549766
0.00142555426842394       0.006158245018702891     0.005608000000000002     -345.55017355497796
0.001407732180587153      0.00620073712084078      0.005608000000000001     -447.4908603862913
0.0013980317916115316     0.006119052324447558     0.005608000000000002     -240.99169363228543
0.0013802097037747445     0.006161544426585446     0.005608000000000001     -319.87750007526347
0.001352687226962336      0.006122351732330114     0.005608000000000001     -225.26744169139909
0.0013256198279643261     0.006082890531948845     0.005608000000000001     83.63329263832438
0.0013709643926135217     0.006079591124066289     0.005608000000000001     64.47348993380862
0.001343896993615512      0.00604012992368502      0.005608000000000002     402.17434785685043
0.0013892415582647075     0.006036830515802465     0.005608000000000001     397.8264921143155
0.0013621741592666978     0.005997369315421195     0.005608                 725.4477445792086
0.0014075187239158933     0.005994069907538641     0.005608000000000001     734.5774765891584
0.0013804513249178836     0.005954608707157371     0.005608000000000001     1053.453482805399
0.0014257958895670792     0.005951309299274817     0.005608000000000001     1074.7264433583373
0.0013987284905690694     0.005911848098893547     0.005608000000000002     1386.1915625354222
0.001444073055218265      0.005908548691010991     0.005608000000000001     1418.2733924218523
0.0014170056562202553     0.005869087490629722     0.005608000000000001     1723.6619837692772
0.0014163089572627172     0.006076291716183733     0.005608                 77.76660135641049
0.0014345861229139033     0.00603353110791991      0.005608                 418.1266138579765
0.001452863288565089      0.005990770499656086     0.005608000000000002     761.8846086538784
0.001471140454216275      0.005948009891392261     0.005608000000000002     1109.0405857441167
0.0014616535219119128     0.006072992308301179     0.005608                 104.91285902165374
0.0014799306875630989     0.006030231700037355     0.005608000000000002     452.279881844279
0.0014982078532142845     0.00598747109177353      0.005608                 803.0448869612401
0.0015069980865611086     0.006069692900418625     0.005608000000000002     145.91226292953854
0.0015252752522122944     0.006026932292154799     0.005608000000000001     500.28629607322284
0.0015523426512103042     0.006066393492536069     0.005608000000000001     200.7648130800647
0.0013918955734046172     0.005828918482289261     0.005608000000000001     2034.555730148118
0.0013736184077534313     0.005871679090553085     0.005608000000000001     1650.0635587806628