% Model:              stripline_filter_simple_decomp_new_mesh.mph
% Version:            COMSOL 6.1.0.252
% Date:               May 18 2023, 21:18
% Dimension:          3
% Nodes:              1688
% Expressions:        1
% Description:        Surface
% X                       Y                        Z                        imag(emw.Ex)
0.001739047872793132      0.005827892223864421     0.005608000000000001     1584.7627820333385
0.001773244014511185      0.005864537376266771     0.005608000000000001     1710.6968780285233
0.0017227202645166144     0.005867129804031616     0.005608000000000001     1450.4890860479409
0.0017569164062346675     0.0059037749564339655    0.005608000000000001     1565.2798976370814
0.0018074401562292383     0.005901182528669121     0.005608000000000002     1809.444156652586
0.0017911125479527206     0.005940420108836316     0.005608000000000001     1644.6993098389403
0.0018416362979472912     0.005937827681071471     0.005608                 1889.8904988777306
0.0018253086896707735     0.005977065261238665     0.005608000000000001     1707.580688500759
0.0018758324396653443     0.005974472833473821     0.005608000000000001     1952.0359047039597
0.0018595048313888268     0.006013710413641016     0.005608000000000001     1753.924033622537
0.0019100285813833974     0.0060111179858761705    0.005608000000000002     1995.8803741312718
0.00189370097310688       0.006050355566043365     0.005608000000000001     1783.7293452042736
0.0019442247231014505     0.00604776313827852      0.005608000000000001     2021.4239071596667
0.0019278971148249328     0.006087000718445715     0.005608                 1794.8018908342879
0.0019784208648195036     0.00608440829068087      0.005608000000000001     2008.4488656169558
0.0017063926562400971     0.00590636738419881      0.005608000000000002     1320.5810766311185
0.00174058879795815       0.0059430125366011595    0.005608                 1420.7287905701282
0.001774784939676203      0.00597965768900351      0.005608                 1487.8522968835705
0.0018089810813942562     0.00601630284140586      0.005608000000000002     1538.4377696569723
0.0018431772231123095     0.00605294799380821      0.005608000000000002     1572.4852088903335
0.0018773733648303624     0.006089593146210559     0.005608000000000002     1587.9719856904014
0.0016900650479635794     0.005945604964366005     0.005608                 1185.127962376297
0.0017242611896816323     0.005982250116768355     0.005608                 1268.8068844605184
0.0017584573313996856     0.006018895269170705     0.005608000000000002     1323.6344848855442
0.0017926534731177385     0.006055540421573054     0.005608                 1361.9240517705289
0.0018268496148357918     0.006092185573975404     0.005608                 1381.9984103218137
0.001673737439687062      0.005984842544533199     0.005608000000000001     1044.1297432834767
0.0017079335814051153     0.00602148769693555      0.005608000000000002     1109.5141793082512
0.0017421297231231681     0.006058132849337899     0.005608000000000001     1152.0458738448597
0.0017763258648412212     0.006094778001740249     0.005608                 1176.881164728526
0.0016574098314105445     0.006024080124700394     0.005608000000000002     897.5864193526572
0.0016916059731285976     0.006060725277102744     0.005608000000000001     942.8506751133259
0.0017258021148466507     0.006097370429505094     0.005608000000000002     972.6202489105376
0.001641082223134027      0.006063317704867588     0.005608000000000001     745.497990583839
0.0016752783648520799     0.006099962857269938     0.005608                 769.2156628678488
0.0016247546148575095     0.006102555285034783     0.005608000000000001     562.6315994979303
0.0025000000000000005     0.006050000000000001     0.005608000000000002     3149.531425610665
0.0025000000000000005     0.006100000000000001     0.005608000000000002     2768.454759611889
0.0024677362666874134     0.006061755674590462     0.005608000000000002     3043.1053546723247
0.0024677362666874134     0.006111755674590462     0.005608000000000001     2662.401388896147
0.0025000000000000005     0.006150000000000001     0.005608000000000002     2370.8979220113174
0.0024677362666874125     0.006161755674590461     0.005608000000000001     2259.427344167112
0.0025000000000000005     0.006200000000000001     0.005608000000000001     1947.460203890792
0.0024677362666874134     0.006211755674590461     0.005608000000000001     1830.572418918121
0.0025000000000000005     0.00625                  0.005608000000000002     1498.1416052503107
0.0024677362666874134     0.0062617556745904615    0.005608000000000001     1375.8366131491757
0.0025000000000000005     0.0063                   0.005608000000000002     1022.9421260898744
0.0024677362666874125     0.006311755674590461     0.005608000000000001     895.2199268602735
0.0025000000000000005     0.006350000000000001     0.005608000000000001     521.861766409483
0.0024677362666874125     0.006361755674590461     0.005608                 380.4407335334299
0.0025                    0.0064                   0.005608000000000001     -2.549736895432028
0.0024354725333748254     0.006073511349180923     0.005608000000000002     2941.1416240375856
0.0024354725333748254     0.006123511349180922     0.005608000000000002     2555.231353688761
0.0024354725333748254     0.0061735113491809225    0.005608000000000002     2146.8401018312597
0.0024354725333748254     0.006223511349180923     0.005608000000000002     1712.5679694538048
0.0024354725333748254     0.006273511349180923     0.005608000000000002     1252.414956556394
0.0024354725333748254     0.006323511349180922     0.005608000000000002     750.0888943324402
0.0024032088000622382     0.006085267023771384     0.005608000000000001     2837.8074981232376
0.0024032088000622382     0.006135267023771384     0.005608000000000002     2446.944653989729
0.0024032088000622382     0.006185267023771384     0.005608000000000002     2033.1361950037633
0.0024032088000622382     0.006235267023771383     0.005608                 1593.4468554978434
0.002403208800062238      0.006285267023771383     0.005608                 1106.3947455015987
0.0023709450667496507     0.006097022698361845     0.005608000000000002     2733.102976929279
0.0023709450667496507     0.006147022698361846     0.005608000000000002     2337.541289799052
0.0023709450667496507     0.006197022698361845     0.005608000000000001     1918.3156236846216
0.0023709450667496502     0.0062470226983618446    0.005608                 1449.358287040905
0.002338681333437063      0.006108778372952307     0.005608000000000002     2627.02806045571
0.002338681333437063      0.006158778372952306     0.005608000000000001     2227.021261116729
0.002338681333437063      0.006208778372952306     0.005608000000000002     1778.9795189503602
0.002306417600124476      0.006120534047542768     0.005608000000000001     2519.5827487025335
0.0023064176001244756     0.006170534047542767     0.005608                 2095.258441229964
0.0022741538668118884     0.006132289722133228     0.005608000000000001     2396.7816763761607
0.0015000000000000002     0.006400000000000001     0.005608000000000001     14.357104830674826
0.0015178220878367874     0.006357507897862114     0.005608000000000001     76.49730744196589
0.001547619047619048      0.006400000000000002     0.005608000000000001     3.4294834057063314E-28
0.001565441135455835      0.006357507897862114     0.005608000000000001     77.9500112251514
0.0015356441756735743     0.006315015795724225     0.005608000000000002     138.6391456546496
0.001583263223292622      0.006315015795724225     0.005608000000000001     162.48996900868462
0.0015534662635103612     0.006272523693586336     0.005608                 207.96117188406225
0.001601085311129409      0.006272523693586336     0.005608000000000001     253.61987335059962
0.0015712883513471485     0.006230031591448448     0.005608000000000001     284.46338613020384
0.0016189073989661962     0.006230031591448449     0.005608000000000001     351.33972425089627
0.0015891104391839354     0.00618753948931056      0.005608000000000002     368.1457883930743
0.001636729486802983      0.00618753948931056      0.005608000000000001     455.64952170957497
0.0016069325270207224     0.006145047387172671     0.005608000000000001     459.00837867267364
0.00165455157463977       0.006145047387172671     0.005608                 558.7697134118604
0.0015952380952380957     0.006400000000000001     0.005608000000000002     3.5145143254627808E-28
0.0016130601830748824     0.006357507897862112     0.005608000000000001     89.56715890534201
0.0016308822709116696     0.006315015795724225     0.005608000000000001     185.72426436906588
0.0016487043587484567     0.006272523693586336     0.005608000000000002     288.4713163911715
0.0016665264465852438     0.006230031591448448     0.005608000000000002     397.80831497165883
0.001684348534422031      0.00618753948931056      0.005608000000000002     513.9258259989037
0.001642857142857143      0.006400000000000001     0.005608000000000001     3.5164540024023787E-28
0.0016606792306939303     0.006357507897862113     0.005608000000000001     101.18430658553261
0.0016785013185307172     0.006315015795724225     0.005608000000000002     208.95855972944702
0.0016963234063675043     0.006272523693586336     0.005608000000000001     323.3227594317434
0.0017141454942042912     0.006230031591448448     0.005608000000000001     450.8805760399083
0.001690476190476191      0.006400000000000001     0.005608000000000002     3.4353024365251397E-28
0.001708298278312978      0.006357507897862113     0.005608000000000002     112.80145426572328
0.0017261203661497648     0.006315015795724225     0.005608000000000002     232.19285508982847
0.001743942453986552      0.006272523693586336     0.005608000000000001     369.6339635348745
0.0017380952380952385     0.006400000000000001     0.005608000000000002     3.2710596278310493E-28
0.0017559173259320254     0.006357507897862113     0.005608000000000001     124.41860194591392
0.0017737394137688125     0.006315015795724225     0.005608000000000002     270.1859884838021
0.001785714285714286      0.006400000000000001     0.005608000000000002     3.0237255763201147E-28
0.001803536373551073      0.006357507897862113     0.005608000000000001     152.53665088669086
0.0018333333333333337     0.006400000000000001     0.005608000000000002     11.1239671623592
0.0019576940746071935     0.006129492820583604     0.005608000000000001     1707.9787036600876
0.0019071703246126232     0.006132085248348448     0.005608000000000001     1529.6542442020232
0.0019369672843948839     0.006174577350486336     0.005608000000000002     1430.9629018227924
0.0018864435344003129     0.006177169778251181     0.005608000000000001     1263.6445219179848
0.0019162404941825736     0.0062196618803890685    0.005608000000000001     1152.0005705259784
0.001865716744188003      0.006222254308153914     0.005608000000000001     994.5779915704911
0.0018955137039702637     0.006264746410291802     0.005608000000000002     871.0917097696463
0.0018449899539756931     0.006267338838056647     0.005608000000000002     722.4546531595417
0.0018747869137579537     0.006309830940194536     0.005608000000000002     588.2363195537956
0.001824263163763383      0.00631242336795938      0.005608000000000001     447.274506685137
0.0018540601235456438     0.0063549154700972684    0.005608000000000002     303.4343998784266
0.0018566465746180523     0.006134677676113292     0.005608                 1331.8620668681083
0.0018359197844057423     0.0061797622060160255    0.005608000000000002     1074.7179688756132
0.0018151929941934326     0.006224846735918758     0.005608000000000002     814.5170628196624
0.0017944662039811226     0.006269931265821491     0.005608000000000002     551.259348700256
0.0018061228246234818     0.006137270103878137     0.005608000000000001     1135.0995698906577
0.0017853960344111721     0.006182354633780871     0.005608000000000002     886.821096189705
0.001764669244198862      0.0062274391636836035    0.005608000000000001     635.4858144252973
0.0017555990746289114     0.0061398625316429825    0.005608000000000002     939.3667532696701
0.0017348722844166013     0.006184947061545714     0.005608000000000002     699.9539038602605
0.0017050753246343406     0.006142454959407826     0.005608000000000001     744.6636170051462
0.0021666666666666666     0.0063999999999999994    0.005608000000000001     10.535657798059015
0.0021820219809731266     0.006361755674590461     0.005608000000000001     373.9408527886388
0.002214285714285714      0.0063999999999999994    0.005608000000000001     1.1818298838964438E-12
0.0022296410285921747     0.00636175567459046      0.005608000000000001     357.311268569865
0.002197377295279587      0.0063235113491809216    0.005608000000000002     725.536428953217
0.002244996342898635      0.006323511349180922     0.005608000000000001     710.0401840129273
0.0022127326095860472     0.006285267023771383     0.005608                 1070.590215190825
0.002260351657205095      0.006285267023771383     0.005608000000000001     1058.186746329189
0.0022280879238925078     0.0062470226983618446    0.005608000000000001     1409.1022115014625
0.0022757069715115554     0.006247022698361845     0.005608000000000001     1401.7509555186493
0.002243443238198968      0.006208778372952306     0.005608000000000002     1741.0724178851294
0.0022910622858180155     0.006208778372952306     0.005608000000000001     1740.7328115813084
0.002258798552505428      0.0061705340475427676    0.005608000000000001     2066.5008343418262
0.002261904761904762      0.0063999999999999994    0.005608000000000002     1.034829854322233E-12
0.002277260076211222      0.006361755674590461     0.005608                 360.28083625898034
0.0022926153905176824     0.006323511349180922     0.005608                 715.9793193911587
0.0023079707048241425     0.006285267023771384     0.005608000000000002     1067.0954493965357
0.002323326019130603      0.0062470226983618446    0.005608000000000002     1413.6292262751113
0.0023095238095238095     0.0063999999999999994    0.005608                 8.685874601109257E-13
0.00232487912383027       0.006361755674590461     0.005608                 363.25040394809577
0.00234023443813673       0.006323511349180922     0.005608000000000002     721.9184547693898
0.00235558975244319       0.006285267023771383     0.005608                 1076.0041524638823
0.002357142857142857      0.0063999999999999994    0.005608000000000001     6.831027012625198E-13
0.0023724981714493176     0.006361755674590462     0.005608000000000002     366.2199716372113
0.0023878534857557777     0.006323511349180922     0.005608000000000001     727.857590147621
0.0024047619047619048     0.0064                   0.005608000000000002     4.783755777770178E-13
0.0024201172190683653     0.006361755674590461     0.005608000000000001     369.1895393263268
0.0024523809523809524     0.0064                   0.005608000000000001     2.5440608965441825E-13
0.0018809523809523814     0.006400000000000001     0.005608000000000002     -4.169351997998167E-12
0.0019016791711646912     0.006354915470097268     0.005608000000000001     292.2871329477226
0.0019224059613770013     0.006309830940194534     0.005608000000000001     583.7380150398681
0.0019431327515893112     0.006264746410291801     0.005608000000000001     874.352646276432
0.0019638595418016215     0.006219661880389069     0.005608000000000001     1164.1310266574142
0.001984586332013931      0.006174577350486335     0.005608000000000001     1453.0731561828154
0.002005313122226241      0.006129492820583602     0.005608                 1792.3280650110985
0.0019285714285714288     0.006400000000000001     0.005608000000000002     -4.090910141198116E-12
0.0019492982187837389     0.006354915470097268     0.005608000000000002     301.23675451853296
0.001970025008996049      0.006309830940194535     0.005608000000000002     601.6372581814884
0.0019907517992083586     0.006264746410291802     0.005608000000000002     901.2015109888621
0.0020114785894206687     0.006219661880389069     0.005608000000000002     1199.9295129406546
0.0020322053796329787     0.006174577350486336     0.005608000000000002     1548.2090749956956
0.0019761904761904764     0.0063999999999999994    0.005608000000000001     -3.910739787386161E-12
0.0019969172664027865     0.006354915470097268     0.005608000000000002     310.18637608934307
0.002017644056615096      0.006309830940194535     0.005608000000000002     619.5365013231085
0.0020383708468274062     0.006264746410291801     0.005608                 928.0503757012925
0.0020590976370397163     0.0062196618803890685    0.005608                 1283.3027090988535
0.002023809523809524      0.0064                   0.005608000000000002     -3.7861684749061705E-12
0.002044536314021834      0.006354915470097268     0.005608000000000002     319.1359976601533
0.002065263104234144      0.006309830940194534     0.005608000000000001     637.4357444647287
0.002085989894446454      0.0062647464102918       0.005608                 997.6089673205714
0.0020714285714285717     0.0063999999999999994    0.005608000000000002     -3.1467491966897525E-12
0.0020921553616408814     0.006354915470097266     0.005608000000000001     328.08561923096386
0.0021128821518531914     0.006309830940194534     0.005608000000000002     691.1278496608498
0.002119047619047619      0.0063999999999999994    0.005608000000000001     -2.9059854577263092E-12
0.002139774409259929      0.006354915470097266     0.005608                 363.859356119689
0.002231906295098691      0.006125449517640034     0.005608000000000001     2346.0765042344847
0.0022165509807922303     0.0061636938430495725    0.005608000000000001     2041.8468281262185
0.0022011956664857698     0.006201938168459111     0.005608000000000001     1728.6166102427746
0.0021858403521793097     0.0062401824938686495    0.005608000000000001     1406.8851656321917
0.0021704850378728496     0.006278426819278189     0.005608000000000001     1076.6524942944684
0.002155129723566389      0.006316671144687727     0.005608000000000001     737.9185962296062
0.0021896587233854927     0.006118609313146841     0.005608000000000002     2301.128424638451
0.002174303409079032      0.006156853638556379     0.005608                 2006.0622244791334
0.002158948094772572      0.006195097963965918     0.005608                 1699.0286863788974
0.002143592780466112      0.006233342289375457     0.005608000000000002     1383.4939215515212
0.002128237466159652      0.0062715866147849955    0.005608000000000002     1059.4579299970057
0.0021474111516722946     0.006111769108653646     0.005608                 2254.2616652313495
0.0021320558373658345     0.006150013434063185     0.005608                 1968.3329493599254
0.0021167005230593745     0.006188257759472724     0.005608000000000002     1667.4960910428968
0.002101345208752914      0.006226502084882263     0.005608                 1358.1580059987282
0.0021051635799590974     0.006104928904160452     0.005608000000000001     2205.4762260131774
0.0020898082656526373     0.0061431732295699915    0.005608000000000002     1928.6590027685943
0.0020744529513461764     0.006181417554979529     0.005608000000000001     1634.0188242347726
0.0020629160082458993     0.006098088699667258     0.005608000000000002     2154.772106983938
0.0020475606939394392     0.0061363330250767964    0.005608000000000001     1887.0403847051398
0.0020206684365327012     0.006091248495174064     0.005608000000000001     2102.1493081436292
0.0016956528655186047     0.005827668603650346     0.005608000000000001     1274.4626838467163
0.0016793252572420872     0.005866906183817541     0.005608000000000001     1152.7694785420401
0.0016629976489655697     0.005906143763984735     0.005608000000000001     1027.163401124929
0.001646670040689052      0.00594538134415193      0.005608000000000001     897.8379130744772
0.0016303424324125347     0.005984618924319124     0.005608000000000001     764.7930143906844
0.0016140148241360172     0.006023856504486319     0.005608000000000001     628.0287050735516
0.0015976872158594995     0.006063094084653513     0.005608                 442.2327185765354
0.0016522578582440774     0.005827444983436272     0.005608000000000002     993.5236703927139
0.0016359302499675597     0.005866682563603467     0.005608                 873.8610770385054
0.0016196026416910423     0.005905920143770661     0.005608                 750.2097398593921
0.001603275033414525      0.005945157723937856     0.005608000000000002     622.8389920469372
0.0015869474251380075     0.00598439530410505      0.005608000000000002     491.74883360114336
0.00157061981686149       0.006023632884272245     0.005608000000000002     314.1040085156115
0.00160886285096955       0.005827221363222197     0.005608                 712.5862160666429
0.0015925352426930327     0.005866458943389391     0.005608                 594.9305156900973
0.0015762076344165155     0.005905696523556586     0.005608000000000002     473.23391874898067
0.0015598800261399978     0.00594493410372378      0.005608                 347.8179111745243
0.00154355241786348       0.005984171683890975     0.005608                 179.79010474155828
0.0015654678436950228     0.0058269977430081225    0.005608000000000001     431.650320868499
0.0015491402354185055     0.005866235323175317     0.005608000000000002     315.97779449681457
0.0015328126271419878     0.005905472903342511     0.005608000000000001     196.2359377936961
0.0015164850188654703     0.005944710483509705     0.005608                 39.291007254374875
0.0015220728364204955     0.005826774122794047     0.005608000000000002     150.71598479828464
0.001505745228143978      0.005866011702961241     0.005608000000000001     37.00291345865884
0.0014894176198674606     0.005905249283128436     0.005608000000000002     -107.39328394593815
0.0014786778291459685     0.005826550502579972     0.005608000000000001     -130.21679214399978
0.0014623502208694508     0.005865788082747167     0.005608                 -260.26276885938034
0.001435282821871441      0.005826326882365898     0.005608000000000001     -440.12687099512044
0.001166666666666667      0.0064                   0.005608000000000001     7.731507071237449
0.001186763237473306      0.006360807305744668     0.005608000000000001     -136.03418409214737
0.0012142857142857146     0.006400000000000001     0.005608000000000001     2.581372330609234E-12
0.0012343822850923538     0.006360807305744668     0.005608000000000001     -124.53527174277096
0.0012068598082799452     0.006321614611489335     0.005608000000000002     -270.9974213507927
0.0012544788558989928     0.006321614611489335     0.005608000000000001     -238.39868566887912
0.0012269563790865841     0.006282421917234        0.005608                 -393.29245116907924
0.0012745754267056318     0.006282421917234002     0.005608000000000001     -341.59024177832214
0.0012470529498932231     0.006243229222978668     0.005608000000000001     -502.9192735470073
0.001294671997512271      0.006243229222978669     0.005608000000000001     -434.10994007110014
0.0012671495206998623     0.006204036528723335     0.005608000000000002     -599.8778884845769
0.00131476856831891       0.006204036528723335     0.005608000000000001     -515.9577805472129
0.0012872460915065013     0.006164843834468002     0.005608000000000001     -684.1682959817879
0.001334865139125549      0.006164843834468002     0.005608                 -620.1285295688426
0.0013073426623131403     0.006125651140212669     0.005608000000000001     -767.4224222841341
0.0012619047619047623     0.0064                   0.005608000000000002     2.4405634453274856E-12
0.0012820013327114012     0.006360807305744667     0.005608                 -114.26189788468835
0.0013020979035180402     0.006321614611489334     0.005608                 -217.85193795271422
0.0013221944743246794     0.006282421917234001     0.005608000000000002     -310.7701202040751
0.0013422910451313184     0.006243229222978668     0.005608000000000002     -393.0164446387706
0.0013623876159379574     0.006204036528723335     0.005608000000000002     -488.0054613053118
0.00130952380952381       0.0064                   0.005608                 2.656602091075551E-12
0.0013296203803304487     0.006360807305744668     0.005608                 -103.98852402660597
0.0013497169511370879     0.006321614611489335     0.005608000000000002     -197.30519023654958
0.001369813521943727      0.006282421917234002     0.005608                 -279.9499986298281
0.0013899100927503658     0.006243229222978668     0.005608                 -365.95400789286964
0.0013571428571428573     0.006400000000000001     0.005608000000000001     2.698002889928984E-12
0.0013772394279494965     0.006360807305744668     0.005608000000000002     -93.71515016852373
0.0013973359987561355     0.006321614611489335     0.005608000000000001     -176.75844252038513
0.0014174325695627745     0.006282421917234001     0.005608                 -253.974169331516
0.0014047619047619052     0.006400000000000001     0.005608000000000002     2.7884034746974434E-12
0.001424858475568544      0.006360807305744668     0.005608000000000001     -83.44177631044131
0.0014449550463751831     0.006321614611489335     0.005608000000000002     -152.06594562125127
0.0014523809523809526     0.006400000000000001     0.005608000000000001     2.6317659697268754E-12
0.0014724775231875916     0.006360807305744668     0.005608                 -60.229336762075214
0.001579410050208314      0.006105854692917339     0.005608000000000001     321.6943471078778
0.001561587962371527      0.006148346795055227     0.005608000000000001     238.45196353274648
0.0015437658745347397     0.006190838897193115     0.005608000000000001     165.76265766168694
0.0015259437866979527     0.006233330999331003     0.005608000000000001     100.84378126570317
0.0015081216988611658     0.006275823101468891     0.005608000000000001     43.69533434479598
0.0014902996110243787     0.00631831520360678      0.005608000000000001     -5.6826831010358205
0.0015340654855591183     0.006109154100799893     0.005608000000000002     130.00848313258143
0.0015162433977223312     0.006151646202937781     0.005608                 57.201336790422204
0.001498421309885544      0.00619413830507567      0.005608                 -5.734690729367969
0.0014805992220487572     0.006236630407213558     0.005608000000000002     -60.90028877408187
0.00146277713421197       0.006279122509351446     0.005608000000000002     -108.29545734372007
0.0014887209209099228     0.006112453508682448     0.005608                 -60.43948868789853
0.0014708988330731356     0.006154945610820337     0.005608                 -122.58150252711708
0.0014530767452363487     0.0061974377129582255    0.005608000000000002     -175.76425169563774
0.0014352546573995616     0.006239929815096114     0.005608                 -221.17657138908237
0.0014433763562607272     0.006115752916565003     0.005608000000000001     -249.6495683535621
0.00142555426842394       0.006158245018702891     0.005608000000000002     -300.89655441987134
0.001407732180587153      0.00620073712084078      0.005608000000000001     -344.3260252371225
0.0013980317916115316     0.006119052324447558     0.005608000000000002     -437.62175586440935
0.0013802097037747445     0.006161544426585446     0.005608000000000001     -477.7438188878407
0.001352687226962336      0.006122351732330114     0.005608000000000001     -624.3560512204402
0.0013256198279643261     0.006082890531948845     0.005608000000000001     -739.6825713426023
0.0013709643926135217     0.006079591124066289     0.005608000000000001     -589.0315238280826
0.001343896993615512      0.00604012992368502      0.005608000000000002     -718.5808651810977
0.0013892415582647075     0.006036830515802465     0.005608000000000001     -542.8310987447954
0.0013621741592666978     0.005997369315421195     0.005608                 -686.4075407458436
0.0014075187239158933     0.005994069907538641     0.005608000000000001     -488.6808748497825
0.0013804513249178836     0.005954608707157371     0.005608000000000001     -643.1625980368406
0.0014257958895670792     0.005951309299274817     0.005608000000000001     -426.5808521430439
0.0013987284905690694     0.005911848098893547     0.005608000000000002     -588.8460370540884
0.001444073055218265      0.005908548691010991     0.005608000000000001     -356.53103062457956
0.0014170056562202553     0.005869087490629722     0.005608000000000001     -523.4578577975869
0.0014163089572627172     0.006076291716183733     0.005608                 -393.8571224261629
0.0014345861229139033     0.00603353110791991      0.005608                 -340.8181312585642
0.001452863288565089      0.005990770499656086     0.005608000000000002     -279.8293412792399
0.001471140454216275      0.005948009891392261     0.005608000000000002     -210.89075248818958
0.0014616535219119128     0.006072992308301179     0.005608                 -197.6747241393956
0.0014799306875630989     0.006030231700037355     0.005608000000000002     -137.79716688748545
0.0014982078532142845     0.00598747109177353      0.005608                 -69.96981082384957
0.0015069980865611086     0.006069692900418625     0.005608000000000002     -0.48432896778064105
0.0015252752522122944     0.006026932292154799     0.005608000000000001     66.23179436844097
0.0015523426512103042     0.006066393492536069     0.005608000000000001     197.7140630886819
0.0013918955734046172     0.005828918482289261     0.005608000000000001     -730.1867820697868
0.0013736184077534313     0.005871679090553085     0.005608000000000001     -804.237096721238
0.0013553412421022455     0.005914439698816909     0.005608000000000001     -861.0085268259941