% Model:              stripline_filter_simple_decomp_new_mesh.mph
% Version:            COMSOL 6.1.0.252
% Date:               May 19 2023, 11:21
% Dimension:          3
% Nodes:              1688
% Expressions:        1
% Description:        Surface
% X                       Y                        Z                        imag(emw.Hy)
0.0021666666666666666     0.0063999999999999994    0.001608                 -0.13236744285413057
0.0021820219809731266     0.006361755674590461     0.0016080000000000003    -0.4026933902311002
0.002214285714285714      0.0063999999999999994    0.0016080000000000003    -4.382061198215737E-14
0.0022296410285921747     0.00636175567459046      0.0016080000000000003    -0.5298735672230632
0.002197377295279587      0.0063235113491809216    0.001608                 -0.9279383889958155
0.002244996342898635      0.006323511349180922     0.001608                 -1.0597471344460831
0.0022127326095860472     0.006285267023771383     0.001608                 -1.4531833877605371
0.002260351657205095      0.006285267023771383     0.001608                 -1.5896207016690997
0.0022280879238925078     0.0062470226983618446    0.001608                 -1.9784283865252792
0.0022757069715115554     0.006247022698361845     0.0016080000000000003    -2.1194942688921197
0.002243443238198968      0.006208778372952306     0.001608                 -2.5036733852900106
0.0022910622858180155     0.006208778372952306     0.001608                 -2.6493678361151387
0.002258798552505428      0.0061705340475427676    0.001608                 -3.0289183840547125
0.0023064176001244756     0.006170534047542767     0.001608                 -3.1113459545292743
0.0022741538668118884     0.006132289722133228     0.001608                 -3.7492558256771806
0.002261904761904762      0.0063999999999999994    0.001608                 -3.8662894124889757E-14
0.002277260076211222      0.006361755674590461     0.0016079999999999998    -0.5298735672230568
0.0022926153905176824     0.006323511349180922     0.001608                 -1.0597471344460767
0.0023079707048241425     0.006285267023771384     0.001608                 -1.5896207016690944
0.002323326019130603      0.0062470226983618446    0.001608                 -2.1194942688921135
0.002338681333437063      0.006208778372952306     0.001608                 -2.615934884903784
0.0023095238095238095     0.0063999999999999994    0.001608                 -3.3505176267621994E-14
0.00232487912383027       0.006361755674590461     0.001608                 -0.5298735672230521
0.00234023443813673       0.006323511349180922     0.001608                 -1.059747134446072
0.00235558975244319       0.006285267023771383     0.001608                 -1.5896207016690869
0.0023709450667496502     0.0062470226983618446    0.001608                 -2.120523815278318
0.002357142857142857      0.0063999999999999994    0.001608                 -2.8347458410354567E-14
0.0023724981714493176     0.006361755674590462     0.001608                 -0.5298735672230482
0.0023878534857557777     0.006323511349180922     0.001608                 -1.0597471344460656
0.002403208800062238      0.006285267023771383     0.001608                 -1.6251127456528118
0.0024047619047619048     0.0064                   0.001608                 -2.3189740553086886E-14
0.0024201172190683653     0.006361755674590461     0.001608                 -0.5298735672230422
0.0024354725333748254     0.006323511349180922     0.001608                 -1.1297016760273362
0.0024523809523809524     0.0064                   0.001608                 -1.8032022695819206E-14
0.0024677362666874125     0.006361755674590461     0.001608                 -0.6342906064018641
0.0025                    0.0064                   0.001608                 -0.1388795367763637
0.0025000000000000005     0.006050000000000001     0.0016080000000000003    -5.058770816147483
0.0025000000000000005     0.006100000000000001     0.0016080000000000005    -4.226813203113056
0.0024677362666874134     0.006061755674590462     0.0016080000000000005    -4.886010045823282
0.0024677362666874134     0.006111755674590462     0.0016080000000000003    -4.029586086880979
0.0025000000000000005     0.006150000000000001     0.001608                 -3.568637514853007
0.0024677362666874125     0.006161755674590461     0.001608                 -3.3714103986209176
0.0025000000000000005     0.006200000000000001     0.001608                 -2.910461826592966
0.0024677362666874134     0.006211755674590461     0.0016080000000000003    -2.7132347103608554
0.0025000000000000005     0.00625                  0.001608                 -2.2522861383329102
0.0024677362666874134     0.0062617556745904615    0.0016080000000000003    -2.055059022100804
0.0025000000000000005     0.0063                   0.001608                 -1.5941104500728311
0.0024677362666874125     0.006311755674590461     0.001608                 -1.3968833338407358
0.0025000000000000005     0.006350000000000001     0.001608                 -0.9359347618127833
0.0024354725333748254     0.006073511349180923     0.001608                 -4.710954607020584
0.0024354725333748254     0.006123511349180922     0.001608                 -3.832358970648848
0.0024354725333748254     0.0061735113491809225    0.001608                 -3.1741832823888023
0.0024354725333748254     0.006223511349180923     0.0016080000000000003    -2.516007594128735
0.0024354725333748254     0.006273511349180923     0.001608                 -1.8578319058686685
0.0024032088000622382     0.006085267023771384     0.001608                 -4.535899168217897
0.0024032088000622382     0.006135267023771384     0.001608                 -3.6351318544167213
0.0024032088000622382     0.006185267023771384     0.0016080000000000003    -2.9769561661566692
0.0024032088000622382     0.006235267023771383     0.001608                 -2.3187804778966323
0.0023709450667496507     0.006097022698361845     0.001608                 -4.360843729415264
0.0023709450667496507     0.006147022698361846     0.001608                 -3.4379047381846277
0.0023709450667496507     0.006197022698361845     0.001608                 -2.7797290499245753
0.002338681333437063      0.006108778372952307     0.001608                 -4.18578829061258
0.002338681333437063      0.006158778372952306     0.001608                 -3.2406776219524938
0.002306417600124476      0.006120534047542768     0.001608                 -4.0107328518099115
7.321727123280041E-4      0.006176133041791869     0.001608                 3.195916944847478
7.466242296144798E-4      0.006208114035821602     0.0016080000000000003    2.63380580271558
6.990051819954321E-4      0.006208114035821602     0.0016080000000000003    2.732078505846759
7.134566992819077E-4      0.006240095029851336     0.0016080000000000003    2.27586647603143
7.610757469009553E-4      0.006240095029851335     0.001608                 2.186608218391723
7.279082165683833E-4      0.006272076023881069     0.001608                 1.8206931808251403
7.755272641874309E-4      0.006272076023881068     0.001608                 1.739410634067877
7.42359733854859E-4       0.006304057017910801     0.001608                 1.3655198856188582
7.899787814739065E-4      0.006304057017910801     0.001608                 1.292213049744024
7.568112511413346E-4      0.006336038011940534     0.0016080000000000003    0.910346590412571
8.044302987603822E-4      0.006336038011940534     0.001608                 0.8450154654201898
7.712627684278102E-4      0.006368019005970267     0.001608                 0.4551732952062855
8.188818160468577E-4      0.006368019005970267     0.001608                 0.3978178810963139
7.857142857142857E-4      0.0063999999999999994    0.001608                 0
8.333333333333334E-4      0.0064                   0.001608                 0.1617770159224929
6.658376516628601E-4      0.006240095029851335     0.001608                 2.3021783443879187
6.802891689493358E-4      0.006272076023881068     0.0016079999999999998    1.8206931808251403
6.947406862358113E-4      0.0063040570179108005    0.001608                 1.3655198856188582
7.09192203522287E-4       0.006336038011940535     0.001608                 0.910346590412571
7.236437208087626E-4      0.006368019005970268     0.001608                 0.4551732952062855
7.380952380952382E-4      0.0064                   0.001608                 0
6.326701213302882E-4      0.006272076023881068     0.001608                 1.8722781829290902
6.471216386167637E-4      0.006304057017910801     0.001608                 1.3655198856188582
6.615731559032395E-4      0.006336038011940534     0.001608                 0.910346590412571
6.76024673189715E-4       0.006368019005970267     0.001608                 0.4551732952062855
6.904761904761906E-4      0.0063999999999999994    0.001608                 0
5.995025909977161E-4      0.006304057017910801     0.001608                 1.4423780214702755
6.139541082841918E-4      0.006336038011940534     0.001608                 0.910346590412571
6.284056255706674E-4      0.006368019005970267     0.001608                 0.4551732952062855
6.428571428571429E-4      0.0063999999999999994    0.001608                 0
5.663350606651442E-4      0.006336038011940534     0.001608                 1.0124778600114415
5.807865779516197E-4      0.006368019005970267     0.001608                 0.4551732952062855
5.952380952380953E-4      0.0064                   0.001608                 0
5.331675303325721E-4      0.006368019005970267     0.001608                 0.5825776985526157
5.476190476190477E-4      0.0063999999999999994    0.001608                 0
5.000000000000001E-4      0.0064                   0.001608                 0.15267753709379847
0.0015000000000000002     0.006400000000000001     0.001608                 -0.07982773224591302
0.0015178220878367874     0.006357507897862114     0.0016080000000000003    0.02695240143981903
0.001547619047619048      0.006400000000000002     0.0016080000000000003    0.23453732900035917
0.001565441135455835      0.006357507897862114     0.0016080000000000003    0.031181850675821396
0.0015356441756735743     0.006315015795724225     0.001608                 -0.13549626588234234
0.001583263223292622      0.006315015795724225     0.001608                 -0.17217362764857144
0.0015534662635103612     0.006272523693586336     0.001608                 -0.2979449332044596
0.001601085311129409      0.006272523693586336     0.001608                 -0.3755291059730364
0.0015712883513471485     0.006230031591448448     0.001608                 -0.4603936005266649
0.0016189073989661962     0.006230031591448449     0.0016080000000000003    -0.5788845842975598
0.0015891104391839354     0.00618753948931056      0.001608                 -0.6228422678487892
0.001636729486802983      0.00618753948931056      0.001608                 -0.7822400626219332
0.0016069325270207224     0.006145047387172671     0.001608                 -0.7852909351709828
0.00165455157463977       0.006145047387172671     0.001608                 -0.9621897194554903
0.0016247546148575095     0.006102555285034783     0.001608                 -0.9391891989009874
0.0015952380952380957     0.006400000000000001     0.001608                 0.07289506556604554
0.0016130601830748824     0.006357507897862112     0.001608                 -0.13046041275839054
0.0016308822709116696     0.006315015795724225     0.001608                 -0.3338158910828485
0.0016487043587484567     0.006272523693586336     0.001608                 -0.5371713694073046
0.0016665264465852438     0.006230031591448448     0.001608                 -0.7405268477316922
0.001684348534422031      0.00618753948931056      0.001608                 -0.8894911883332448
0.001642857142857143      0.006400000000000001     0.001608                 -0.08874719786820275
0.0016606792306939303     0.006357507897862113     0.001608                 -0.29210267619265623
0.0016785013185307172     0.006315015795724225     0.0016080000000000003    -0.4954581545171115
0.0016963234063675043     0.006272523693586336     0.001608                 -0.6988136328415189
0.0017141454942042912     0.006230031591448448     0.001608                 -0.8167926572110575
0.001690476190476191      0.006400000000000001     0.001608                 -0.25038946130243656
0.001708298278312978      0.006357507897862113     0.0016080000000000003    -0.45374493962690177
0.0017261203661497648     0.006315015795724225     0.001608                 -0.6571004179513666
0.001743942453986552      0.006272523693586336     0.001608                 -0.7440941260888085
0.0017380952380952385     0.006400000000000001     0.001608                 -0.412031724736663
0.0017559173259320254     0.006357507897862113     0.001608                 -0.6153872030611428
0.0017737394137688125     0.006315015795724225     0.001608                 -0.6713955949665555
0.001785714285714286      0.006400000000000001     0.0016080000000000003    -0.5736739881709766
0.001803536373551073      0.006357507897862113     0.0016080000000000003    -0.5986970638444044
0.0018333333333333337     0.006400000000000001     0.0016080000000000003    -0.12144997935258774
9.920396292546413E-4      0.006138726631316448     0.001608                 2.7906332258362414
0.0010169863488849308     0.006176051398271241     0.0016080000000000003    2.1273996101740558
9.693673012658832E-4      0.006176051398271241     0.0016080000000000003    2.433749839048042
9.943140208961724E-4      0.006213376165226034     0.0016080000000000003    1.994168916734381
0.00104193306851522       0.006213376165226034     0.001608                 1.7253531053805529
0.001019260740526462      0.006250700932180827     0.001608                 1.5160178363269368
0.0010668797881455095     0.006250700932180827     0.001608                 1.3233066005870766
0.0010442074601567511     0.00628802569913562      0.001608                 1.0378667559195243
0.001091826507775799      0.00628802569913562      0.001608                 0.9212600957935793
0.0010691541797870406     0.006325350466090415     0.0016080000000000003    0.5597156755120358
0.0011167732274060883     0.006325350466090414     0.001608                 0.5192135910001182
0.0010941008994173299     0.006362675233045206     0.001608                 0.08156459510456177
0.0011417199470363775     0.006362675233045207     0.001608                 0.11716708620655009
0.0011190476190476193     0.0063999999999999994    0.001608                 -0.3965864853029123
0.001166666666666667      0.0064                   0.001608                 0.17898036613987747
9.466949732771248E-4      0.006213376165226034     0.001608                 2.0685691198539975
9.716416929074141E-4      0.006250700932180827     0.0016079999999999998    1.6794639929144974
9.965884125377037E-4      0.006288025699135621     0.001608                 1.2013129125070416
0.001021535132167993      0.006325350466090414     0.001608                 0.7231618320996218
0.0010464818517982822     0.006362675233045207     0.001608                 0.24501075169214775
0.0010714285714285717     0.0064                   0.001608                 -0.23314032871531176
9.240226452883664E-4      0.006250700932180827     0.001608                 1.7033884006599604
9.489693649186559E-4      0.00628802569913562      0.001608                 1.364759069094653
9.739160845489453E-4      0.006325350466090414     0.001608                 0.8866079886871716
9.988628041792346E-4      0.006362675233045206     0.001608                 0.4084569082797347
0.001023809523809524      0.0063999999999999994    0.001608                 -0.0696941721277439
9.013503172996082E-4      0.00628802569913562      0.001608                 1.3382076814659376
9.262970369298977E-4      0.006325350466090414     0.001608                 1.050054145274765
9.51243756560187E-4       0.006362675233045207     0.001608                 0.5719030648673125
9.761904761904763E-4      0.0063999999999999994    0.001608                 0.09375198445983124
8.7867798931085E-4        0.006325350466090414     0.001608                 0.9730269622718861
9.036247089411393E-4      0.006362675233045206     0.001608                 0.7353492214548623
9.285714285714288E-4      0.0064                   0.001608                 0.2571981410474173
8.560056613220917E-4      0.006362675233045207     0.001608                 0.6078462430777838
8.80952380952381E-4       0.0063999999999999994    0.001608                 0.42064429763500333
7.692965576032379E-4      0.0061707892688668085    0.0016080000000000003    3.13225959387482
7.837480748897137E-4      0.006202770262896541     0.0016080000000000003    2.513006475320264
8.064204028784719E-4      0.006165445495941749     0.001608                 3.0774889309402873
8.208719201649474E-4      0.006197426489971481     0.001608                 2.4894411164470442
8.435442481537058E-4      0.006160101723016688     0.001608                 3.0227182680057494
8.579957654401814E-4      0.006192082717046422     0.001608                 2.4658757575738646
8.806680934289396E-4      0.006154757950091628     0.001608                 2.967947605071224
8.951196107154153E-4      0.006186738944121362     0.0016080000000000003    2.4423103987007
9.177919387041736E-4      0.006149414177166568     0.001608                 2.9131769421366904
9.322434559906492E-4      0.006181395171196301     0.001608                 2.418745039827458
9.549157839794074E-4      0.006144070404241508     0.001608                 2.8584062792021356
7.981995921761891E-4      0.006234751256926275     0.0016079999999999998    2.0737846018788364
8.353234374514231E-4      0.006229407484001214     0.001608                 2.0502192430056714
8.72447282726657E-4       0.006224063711076155     0.001608                 2.0266538841324406
9.095711280018908E-4      0.006218719938151094     0.001608                 2.003088525259254
8.126511094626648E-4      0.006266732250956008     0.001608                 1.6345627284374196
8.497749547378987E-4      0.006261388478030948     0.001608                 1.6109973695642401
8.868988000131327E-4      0.006256044705105887     0.001608                 1.5874320106910318
8.271026267491405E-4      0.006298713244985741     0.001608                 1.1953408549959958
8.642264720243743E-4      0.0062933694720606805    0.001608                 1.1717754961228453
8.41554144035616E-4       0.006330694239015474     0.001608                 0.7561189815546154
0.001186763237473306      0.006360807305744668     0.0016080000000000003    0.6445305706095514
0.0012142857142857146     0.006400000000000001     0.0016080000000000003    0.8602734684712107
0.0012343822850923538     0.006360807305744668     0.0016080000000000003    0.8437420899135949
0.0012068598082799452     0.006321614611489335     0.001608                 0.7405742710640537
0.0012544788558989928     0.006321614611489335     0.001608                 0.8272107113559645
0.0012269563790865841     0.006282421917234        0.001608                 0.8366179715184544
0.0012745754267056318     0.006282421917234002     0.001608                 0.810679332798443
0.0012470529498932231     0.006243229222978668     0.001608                 0.9326616719729776
0.001294671997512271      0.006243229222978669     0.0016080000000000003    0.7941479542408598
0.0012671495206998623     0.006204036528723335     0.001608                 1.0287053724274111
0.00131476856831891       0.006204036528723335     0.001608                 0.7776165756832241
0.0012872460915065013     0.006164843834468002     0.001608                 1.1247490728819045
0.001334865139125549      0.006164843834468002     0.001608                 0.8776761400421296
0.0013073426623131403     0.006125651140212669     0.001608                 1.2093269045056907
0.0012619047619047623     0.0064                   0.001608                 0.6138470013490396
0.0012820013327114012     0.006360807305744667     0.0016079999999999998    0.5973156227915182
0.0013020979035180402     0.006321614611489334     0.001608                 0.5807842442338551
0.0013221944743246794     0.006282421917234001     0.001608                 0.5642528656762771
0.0013422910451313184     0.006243229222978668     0.001608                 0.5477214871186524
0.0013623876159379574     0.006204036528723335     0.001608                 0.6784248842706908
0.00130952380952381       0.0064                   0.001608                 0.3674205342268831
0.0013296203803304487     0.006360807305744668     0.001608                 0.3508891556692829
0.0013497169511370879     0.006321614611489335     0.001608                 0.33435777711168047
0.001369813521943727      0.006282421917234002     0.001608                 0.3178263985540791
0.0013899100927503658     0.006243229222978668     0.001608                 0.47917362849934625
0.0013571428571428573     0.006400000000000001     0.001608                 0.1209940671046939
0.0013772394279494965     0.006360807305744668     0.001608                 0.10446268854707443
0.0013973359987561355     0.006321614611489335     0.001608                 0.08793130998945857
0.0014174325695627745     0.006282421917234001     0.001608                 0.2799223727279437
0.0014047619047619052     0.006400000000000001     0.001608                 -0.12543240001742997
0.001424858475568544      0.006360807305744668     0.001608                 -0.14196377857509662
0.0014449550463751831     0.006321614611489335     0.001608                 0.08067111695655563
0.0014523809523809526     0.006400000000000001     0.001608                 -0.3718588671397099
0.0014724775231875916     0.006360807305744668     0.001608                 -0.11858013881480339
0.001579410050208314      0.006105854692917339     0.0016080000000000003    -0.6747658772376413
0.001561587962371527      0.006148346795055227     0.0016080000000000003    -0.4564793135317044
0.0015437658745347397     0.006190838897193115     0.001608                 -0.3349374572118763
0.0015259437866979527     0.006233330999331003     0.001608                 -0.21339560089197568
0.0015081216988611658     0.006275823101468891     0.0016080000000000003    -0.09185374457204601
0.0014902996110243787     0.00631831520360678      0.001608                 0.0296881117478256
0.0015340654855591183     0.006109154100799893     0.001608                 -0.32691275375313067
0.0015162433977223312     0.006151646202937781     0.0016079999999999998    -0.16633003423365544
0.001498421309885544      0.00619413830507567      0.001608                 -0.04478817791376932
0.0014805992220487572     0.006236630407213558     0.001608                 0.07675367840607326
0.00146277713421197       0.006279122509351446     0.001608                 0.19829553472591582
0.0014887209209099228     0.006112453508682448     0.001608                 0.02094036973141907
0.0014708988330731356     0.006154945610820337     0.001608                 0.12381924506442982
0.0014530767452363487     0.0061974377129582255    0.001608                 0.24536110138429412
0.0014352546573995616     0.006239929815096114     0.001608                 0.36690295770415127
0.0014433763562607272     0.006115752916565003     0.001608                 0.3687934932159697
0.00142555426842394       0.006158245018702891     0.001608                 0.4139685243624715
0.001407732180587153      0.00620073712084078      0.001608                 0.5355103806823286
0.0013980317916115316     0.006119052324447558     0.001608                 0.7166466167005159
0.0013802097037747445     0.006161544426585446     0.001608                 0.704117803660535
0.001352687226962336      0.006122351732330114     0.001608                 1.064499740185055
0.0011618165178430167     0.006323482538789874     0.0016080000000000003    0.524834513362774
0.0011368697982127272     0.006286157771835081     0.001608                 0.8507764425422474
0.0011119230785824378     0.006248833004880288     0.001608                 1.1767183717218277
0.0010869763589521485     0.0062115082379254945    0.0016080000000000003    1.5026603009013448
0.001062029639321859      0.0061741834709707006    0.001608                 1.8286022300808882
0.0010370829196915698     0.0061368587040159074    0.001608                 2.595949104274915
0.0011819130886496557     0.00628428984453454      0.0016079999999999998    0.7334532928293327
0.0011569663690193662     0.006246965077579748     0.001608                 1.0593952220088225
0.001132019649389077      0.006209640310624955     0.001608                 1.3853371511883559
0.0011070729297587875     0.00617231554367016      0.001608                 1.7112790803678837
0.0010821262101284982     0.006134990776715367     0.001608                 2.356879006826683
0.0012020096594562947     0.006245097150279208     0.001608                 0.9420720722958498
0.0011770629398260056     0.006207772383324415     0.001608                 1.2680140014753687
0.0011521162201957162     0.006170447616369621     0.001608                 1.59395593065492
0.0011271695005654267     0.006133122849414828     0.001608                 2.117808909378435
0.0012221062302629339     0.006205904456023875     0.001608                 1.1506908517624195
0.0011971595106326444     0.006168579689069082     0.001608                 1.476632780941924
0.001172212791002355      0.006131254922114288     0.001608                 1.878738811930182
0.0012422028010695728     0.006166711761768541     0.001608                 1.3593096312289148
0.0012172560814392836     0.006129386994813748     0.001608                 1.6396687144819375
0.0012622993718762118     0.006127519067513208     0.001608                 1.4005986170336933
0.0018540601235456438     0.0063549154700972684    0.0016080000000000005    -0.2551294153150412
0.0018809523809523814     0.006400000000000001     0.0016080000000000005    0.4976681740984627
0.0019016791711646912     0.006354915470097268     0.0016080000000000003    -0.05894876466198179
0.0018747869137579537     0.006309830940194536     0.001608                 -0.695741987403679
0.0019224059613770013     0.006309830940194534     0.001608                 -0.6155657034224484
0.0018955137039702637     0.006264746410291802     0.001608                 -1.1363545594923947
0.0019431327515893112     0.006264746410291801     0.0016080000000000003    -1.1721826421828847
0.0019162404941825738     0.006219661880389069     0.001608                 -1.576967131581136
0.0019638595418016215     0.006219661880389069     0.0016080000000000003    -1.7287995809433951
0.0019369672843948839     0.006174577350486336     0.001608                 -2.0175797036698375
0.001984586332013931      0.006174577350486335     0.001608                 -2.2854165197037974
0.0019576940746071935     0.006129492820583603     0.001608                 -2.458192275758544
0.002005313122226241      0.006129492820583602     0.001608                 -2.842964076229858
0.0019784208648195036     0.00608440829068087      0.001608                 -3.2166390844053008
0.0019285714285714288     0.006400000000000001     0.001608                 0.3076892208104945
0.0019492982187837389     0.006354915470097268     0.001608                 -0.24892771795001623
0.001970025008996049      0.006309830940194535     0.001608                 -0.8055446567104672
0.0019907517992083586     0.006264746410291802     0.0016080000000000003    -1.3621615954709347
0.0020114785894206687     0.006219661880389069     0.001608                 -1.9187785342313965
0.0020322053796329787     0.006174577350486336     0.001608                 -2.4022285909050733
0.0019761904761904764     0.0063999999999999994    0.001608                 0.11771026752244634
0.0019969172664027865     0.006354915470097268     0.001608                 -0.4389066712380369
0.002017644056615096      0.006309830940194535     0.0016080000000000003    -0.9955236099984932
0.0020383708468274062     0.006264746410291801     0.001608                 -1.5521405487589512
0.0020590976370397163     0.0062196618803890685    0.001608                 -1.961493105580297
0.002023809523809524      0.0064                   0.001608                 -0.07226868576557997
0.002044536314021834      0.006354915470097268     0.001608                 -0.628885624526041
0.002065263104234144      0.006309830940194534     0.001608                 -1.1855025632865035
0.002085989894446454      0.0062647464102918       0.001608                 -1.5207576202554927
0.0020714285714285717     0.0063999999999999994    0.001608                 -0.26224763905361353
0.0020921553616408814     0.006354915470097266     0.001608                 -0.8188645778140791
0.0021128821518531914     0.006309830940194534     0.001608                 -1.0800221349307086
0.002119047619047619      0.0063999999999999994    0.001608                 -0.4522265923416036
0.002139774409259929      0.006354915470097266     0.001608                 -0.6392866496059282
0.002231906295098691      0.006125449517640034     0.0016080000000000003    -3.614598220961594
0.0022165509807922303     0.0061636938430495725    0.0016080000000000003    -2.8728119196419932
0.0022011956664857698     0.006201938168459111     0.001608                 -2.3521954893355446
0.0021858403521793097     0.0062401824938686495    0.001608                 -1.831579059029111
0.0021704850378728496     0.006278426819278189     0.0016080000000000003    -1.3109626287226628
0.002155129723566389      0.006316671144687727     0.001608                 -0.7903461984162214
0.0021896587233854927     0.006118609313146841     0.001608                 -3.546291776018122
0.002174303409079032      0.006156853638556379     0.0016079999999999998    -2.8670284745126775
0.002158948094772572      0.006195097963965918     0.001608                 -2.3464120442062293