% Model:              stripline_filter_simple_decomp_new_mesh.mph
% Version:            COMSOL 6.1.0.252
% Date:               May 19 2023, 11:18
% Dimension:          3
% Nodes:              1688
% Expressions:        1
% Description:        Surface
% X                       Y                        Z                        imag(emw.Hx)
0.001739047872793132      0.005827892223864421     0.005608000000000001     -17.07713427121554
0.001773244014511185      0.005864537376266771     0.005608000000000001     -15.259071286588611
0.0017227202645166144     0.005867129804031616     0.005608000000000001     -15.538693004465825
0.0017569164062346675     0.0059037749564339655    0.005608000000000001     -14.041843799713044
0.0018074401562292383     0.005901182528669121     0.005608000000000002     -13.746776310888407
0.0017911125479527206     0.005940420108836316     0.005608000000000001     -12.59213233674532
0.0018416362979472912     0.005937827681071471     0.005608                 -12.234481335188203
0.0018253086896707735     0.005977065261238665     0.005608000000000001     -11.14242087377759
0.0018758324396653443     0.005974472833473821     0.005608000000000001     -10.72218635948801
0.0018595048313888268     0.006013710413641016     0.005608000000000001     -9.692709410809854
0.0019100285813833974     0.0060111179858761705    0.005608000000000002     -9.209891383787815
0.00189370097310688       0.006050355566043365     0.005608000000000001     -8.242997947842127
0.0019442247231014505     0.00604776313827852      0.005608000000000001     -7.697596408087611
0.0019278971148249328     0.006087000718445715     0.005608                 -6.747288384894567
0.0019784208648195036     0.00608440829068087      0.005608000000000001     -6.387504635223105
0.0017063926562400971     0.00590636738419881      0.005608000000000002     -14.33101212569203
0.00174058879795815       0.0059430125366011595    0.005608                 -12.873300053008492
0.001774784939676203      0.00597965768900351      0.005608                 -11.423588590040781
0.0018089810813942562     0.00601630284140586      0.005608000000000002     -9.973877127073035
0.0018431772231123095     0.00605294799380821      0.005608000000000002     -8.524165664105297
0.0018773733648303624     0.006089593146210559     0.005608000000000002     -7.005672347625454
0.0016900650479635794     0.005945604964366005     0.005608                 -13.123331246918232
0.0017242611896816323     0.005982250116768355     0.005608                 -11.704756306303961
0.0017584573313996856     0.006018895269170705     0.005608000000000002     -10.255044843336224
0.0017926534731177385     0.006055540421573054     0.005608                 -8.805333380368488
0.0018268496148357918     0.006092185573975404     0.005608                 -7.264056310356329
0.001673737439687062      0.005984842544533199     0.005608000000000001     -11.915650368144451
0.0017079335814051153     0.00602148769693555      0.005608000000000002     -10.536212559599416
0.0017421297231231681     0.006058132849337899     0.005608000000000001     -9.086501096631673
0.0017763258648412212     0.006094778001740249     0.005608                 -7.5224402730872235
0.0016574098314105445     0.006024080124700394     0.005608000000000002     -10.70796948937065
0.0016916059731285976     0.006060725277102744     0.005608000000000001     -9.367668812894852
0.0017258021148466507     0.006097370429505094     0.005608000000000002     -7.78082423581812
0.001641082223134027      0.006063317704867588     0.005608000000000001     -9.500288610596858
0.0016752783648520799     0.006099962857269938     0.005608                 -8.039208198549002
0.0016247546148575095     0.006102555285034783     0.005608000000000001     -8.210090144107047
0.0025000000000000005     0.006050000000000001     0.005608000000000002     0.006962996084014583
0.0025000000000000005     0.006100000000000001     0.005608000000000002     -4.9755105372278846E-15
0.0024677362666874134     0.006061755674590462     0.005608000000000002     -0.31896659249268444
0.0024677362666874134     0.006111755674590462     0.005608000000000001     -0.3109074866888989
0.0025000000000000005     0.006150000000000001     0.005608000000000002     -3.605606631447178E-15
0.0024677362666874125     0.006161755674590461     0.005608000000000001     -0.3109074866888982
0.0025000000000000005     0.006200000000000001     0.005608000000000001     -2.2357027256664927E-15
0.0024677362666874134     0.006211755674590461     0.005608000000000001     -0.31090748668889645
0.0025000000000000005     0.00625                  0.005608000000000002     -8.65798819885766E-16
0.0024677362666874134     0.0062617556745904615    0.005608000000000001     -0.3109074866888947
0.0025000000000000005     0.0063                   0.005608000000000002     5.041050858949685E-16
0.0024677362666874125     0.006311755674590461     0.005608000000000001     -0.31090748668889334
0.0025000000000000005     0.006350000000000001     0.005608000000000001     1.87400899167564E-15
0.0024677362666874125     0.006361755674590461     0.005608                 -0.3779452871652612
0.0025                    0.0064                   0.005608000000000001     -0.062427913987939426
0.0024354725333748254     0.006073511349180923     0.005608000000000002     -0.6483776791113822
0.0024354725333748254     0.006123511349180922     0.005608000000000002     -0.6218149733777931
0.0024354725333748254     0.0061735113491809225    0.005608000000000002     -0.6218149733777911
0.0024354725333748254     0.006223511349180923     0.005608000000000002     -0.6218149733777905
0.0024354725333748254     0.006273511349180923     0.005608000000000002     -0.6218149733777893
0.0024354725333748254     0.006323511349180922     0.005608000000000002     -0.6934626603425692
0.0024032088000622382     0.006085267023771384     0.005608000000000001     -0.9777887657300574
0.0024032088000622382     0.006135267023771384     0.005608000000000002     -0.9327224600666881
0.0024032088000622382     0.006185267023771384     0.005608000000000002     -0.9327224600666862
0.0024032088000622382     0.006235267023771383     0.005608                 -0.932722460066685
0.002403208800062238      0.006285267023771383     0.005608                 -1.0089800335198782
0.0023709450667496507     0.006097022698361845     0.005608000000000002     -1.3071998523487482
0.0023709450667496507     0.006147022698361846     0.005608000000000002     -1.2436299467555822
0.0023709450667496507     0.006197022698361845     0.005608000000000001     -1.2436299467555814
0.0023709450667496502     0.0062470226983618446    0.005608                 -1.324497406697197
0.002338681333437063      0.006108778372952307     0.005608000000000002     -1.636610938967439
0.002338681333437063      0.006158778372952306     0.005608000000000001     -1.5545374334444786
0.002338681333437063      0.006208778372952306     0.005608000000000002     -1.6400147798745068
0.002306417600124476      0.006120534047542768     0.005608000000000001     -1.966022025586117
0.0023064176001244756     0.006170534047542767     0.005608                 -1.955532153051814
0.0022741538668118884     0.006132289722133228     0.005608000000000001     -2.4967671730849132
0.0015000000000000002     0.006400000000000001     0.005608000000000001     -4.185333056874669
0.0015178220878367874     0.006357507897862114     0.005608000000000001     -4.68170463047778
0.001547619047619048      0.006400000000000002     0.005608000000000001     -4.191494872714355
0.001565441135455835      0.006357507897862114     0.005608000000000001     -4.695703027085095
0.0015356441756735743     0.006315015795724225     0.005608000000000002     -5.25294546081312
0.001583263223292622      0.006315015795724225     0.005608000000000001     -5.199911181455821
0.0015534662635103612     0.006272523693586336     0.005608                 -5.824186291148495
0.001601085311129409      0.006272523693586336     0.005608000000000001     -5.704119335826551
0.0015712883513471485     0.006230031591448448     0.005608000000000001     -6.395427121483861
0.0016189073989661962     0.006230031591448449     0.005608000000000001     -6.208327490197286
0.0015891104391839354     0.00618753948931056      0.005608000000000002     -6.966667951819211
0.001636729486802983      0.00618753948931056      0.005608000000000001     -6.712535644568006
0.0016069325270207224     0.006145047387172671     0.005608000000000001     -7.537908782154568
0.00165455157463977       0.006145047387172671     0.005608                 -7.282561530232284
0.0015952380952380957     0.006400000000000001     0.005608000000000002     -4.131609591889986
0.0016130601830748824     0.006357507897862112     0.005608000000000001     -4.63581774626072
0.0016308822709116696     0.006315015795724225     0.005608000000000001     -5.140025900631454
0.0016487043587484567     0.006272523693586336     0.005608000000000002     -5.644234055002171
0.0016665264465852438     0.006230031591448448     0.005608000000000002     -6.148442209372899
0.001684348534422031      0.00618753948931056      0.005608000000000002     -6.617258673344487
0.001642857142857143      0.006400000000000001     0.005608000000000001     -4.071724311065619
0.0016606792306939303     0.006357507897862113     0.005608000000000001     -4.575932465436331
0.0016785013185307172     0.006315015795724225     0.005608000000000002     -5.080140619807057
0.0016963234063675043     0.006272523693586336     0.005608000000000001     -5.584348774177774
0.0017141454942042912     0.006230031591448448     0.005608000000000001     -5.951955816456715
0.001690476190476191      0.006400000000000001     0.005608000000000002     -4.011839030241222
0.001708298278312978      0.006357507897862113     0.005608000000000002     -4.516047184611955
0.0017261203661497648     0.006315015795724225     0.005608000000000002     -5.020255338982667
0.001743942453986552      0.006272523693586336     0.005608000000000001     -5.286652959568938
0.0017380952380952385     0.006400000000000001     0.005608000000000002     -3.9519537494168286
0.0017559173259320254     0.006357507897862113     0.005608000000000001     -4.456161903787576
0.0017737394137688125     0.006315015795724225     0.005608000000000002     -4.621350102681154
0.001785714285714286      0.006400000000000001     0.005608000000000002     -3.8920684685924503
0.001803536373551073      0.006357507897862113     0.005608000000000001     -3.95604724579338
0.0018333333333333337     0.006400000000000001     0.005608000000000002     -3.2037198440729533
0.0019576940746071935     0.006129492820583604     0.005608000000000001     -5.751165700391609
0.0019071703246126232     0.006132085248348448     0.005608000000000001     -6.17037821553288
0.0019369672843948839     0.006174577350486336     0.005608000000000002     -5.2742194456972475
0.0018864435344003129     0.006177169778251181     0.005608000000000001     -5.639466146151008
0.0019162404941825736     0.0062196618803890685    0.005608000000000001     -4.797273191002866
0.001865716744188003      0.006222254308153914     0.005608000000000001     -5.108554076769149
0.0018955137039702637     0.006264746410291802     0.005608000000000002     -4.320326936308512
0.0018449899539756931     0.006267338838056647     0.005608000000000002     -4.577642007387299
0.0018747869137579537     0.006309830940194536     0.005608000000000002     -3.8433806816141427
0.001824263163763383      0.00631242336795938      0.005608000000000001     -4.046729938005435
0.0018540601235456438     0.0063549154700972684    0.005608000000000002     -3.3664344269197732
0.0018566465746180523     0.006134677676113292     0.005608                 -6.405978424731469
0.0018359197844057423     0.0061797622060160255    0.005608000000000002     -5.8750663553496
0.0018151929941934326     0.006224846735918758     0.005608000000000002     -5.344154285967727
0.0017944662039811226     0.006269931265821491     0.005608000000000002     -4.813242216585896
0.0018061228246234818     0.006137270103878137     0.005608000000000001     -6.641578633930045
0.0017853960344111721     0.006182354633780871     0.005608000000000002     -6.110666564548186
0.001764669244198862      0.0062274391636836035    0.005608000000000001     -5.579754495166336
0.0017555990746289114     0.0061398625316429825    0.005608000000000002     -6.877178843128659
0.0017348722844166013     0.006184947061545714     0.005608000000000002     -6.346266773746778
0.0017050753246343406     0.006142454959407826     0.005608000000000001     -7.112779052327262
0.0021666666666666666     0.0063999999999999994    0.005608000000000001     -1.82228858752305
0.0021820219809731266     0.006361755674590461     0.005608000000000001     -2.04460644373399
0.002214285714285714      0.0063999999999999994    0.005608000000000001     -1.8619245808453346
0.0022296410285921747     0.00636175567459046      0.005608000000000001     -1.8925403816995097
0.002197377295279587      0.0063235113491809216    0.005608000000000002     -2.162546498623181
0.002244996342898635      0.006323511349180922     0.005608000000000001     -1.9231561825536414
0.0022127326095860472     0.006285267023771383     0.005608                 -2.280486553512355
0.002260351657205095      0.006285267023771383     0.005608000000000001     -1.9537719834077962
0.0022280879238925078     0.0062470226983618446    0.005608000000000001     -2.3984266084015484
0.0022757069715115554     0.006247022698361845     0.005608000000000001     -1.9843877842619584
0.002243443238198968      0.006208778372952306     0.005608000000000002     -2.5163666632907282
0.0022910622858180155     0.006208778372952306     0.005608000000000001     -2.0150035851161103
0.002258798552505428      0.0061705340475427676    0.005608000000000001     -2.634306718179916
0.002261904761904762      0.0063999999999999994    0.005608000000000002     -1.5724131220337783
0.002277260076211222      0.006361755674590461     0.005608                 -1.6030289228879293
0.0022926153905176824     0.006323511349180922     0.005608                 -1.6336447237420797
0.0023079707048241425     0.006285267023771384     0.005608000000000002     -1.664260524596227
0.002323326019130603      0.0062470226983618446    0.005608000000000002     -1.6948763254503927
0.0023095238095238095     0.0063999999999999994    0.005608                 -1.2829016632222028
0.00232487912383027       0.006361755674590461     0.005608                 -1.313517464076358
0.00234023443813673       0.006323511349180922     0.005608000000000002     -1.3441332649305096
0.00235558975244319       0.006285267023771383     0.005608                 -1.3747490657846626
0.002357142857142857      0.0063999999999999994    0.005608000000000001     -0.9933902044106264
0.0023724981714493176     0.006361755674590462     0.005608000000000002     -1.0240060052647872
0.0023878534857557777     0.006323511349180922     0.005608000000000001     -1.0546218061189325
0.0024047619047619048     0.0064                   0.005608000000000002     -0.7038787455990474
0.0024201172190683653     0.006361755674590461     0.005608000000000001     -0.7344945464532109
0.0024523809523809524     0.0064                   0.005608000000000001     -0.4143672867874738
0.0018809523809523814     0.006400000000000001     0.005608000000000002     -2.827365358760834
0.0019016791711646912     0.006354915470097268     0.005608000000000001     -3.250345798767702
0.0019224059613770013     0.006309830940194534     0.005608000000000001     -3.6733262387745844
0.0019431327515893112     0.006264746410291801     0.005608000000000001     -4.09630667878144
0.0019638595418016215     0.006219661880389069     0.005608000000000001     -4.519287118788311
0.001984586332013931      0.006174577350486335     0.005608000000000001     -4.942267558795194
0.002005313122226241      0.006129492820583602     0.005608                 -5.400804134714228
0.0019285714285714288     0.006400000000000001     0.005608000000000002     -2.625059963113956
0.0019492982187837389     0.006354915470097268     0.005608000000000002     -3.048040403120817
0.001970025008996049      0.006309830940194535     0.005608000000000002     -3.4710208431276968
0.0019907517992083586     0.006264746410291802     0.005608000000000002     -3.894001283134557
0.0020114785894206687     0.006219661880389069     0.005608000000000002     -4.316981723141421
0.0020322053796329787     0.006174577350486336     0.005608000000000002     -4.776955922504541
0.0019761904761904764     0.0063999999999999994    0.005608000000000001     -2.422754567467071
0.0019969172664027865     0.006354915470097268     0.005608000000000002     -2.8457350074739467
0.002017644056615096      0.006309830940194535     0.005608000000000002     -3.268715447480804
0.0020383708468274062     0.006264746410291801     0.005608                 -3.6916958874876755
0.0020590976370397163     0.0062196618803890685    0.005608                 -4.153107710294845
0.002023809523809524      0.0064                   0.005608000000000002     -2.2204491718202006
0.002044536314021834      0.006354915470097268     0.005608000000000002     -2.643429611827069
0.002065263104234144      0.006309830940194534     0.005608000000000001     -3.06641005183393
0.002085989894446454      0.0062647464102918       0.005608                 -3.529259498085166
0.0020714285714285717     0.0063999999999999994    0.005608000000000002     -2.0181437761732974
0.0020921553616408814     0.006354915470097266     0.005608000000000001     -2.4411242161801763
0.0021128821518531914     0.006309830940194534     0.005608000000000002     -2.9054112858754833
0.002119047619047619      0.0063999999999999994    0.005608000000000001     -1.815838380526423
0.002139774409259929      0.006354915470097266     0.005608                 -2.281563073665794
0.002231906295098691      0.006125449517640034     0.005608000000000001     -3.3044165376807193
0.0022165509807922303     0.0061636938430495725    0.005608000000000001     -3.3506288714194072
0.0022011956664857698     0.006201938168459111     0.005608000000000001     -3.1453645624951743
0.0021858403521793097     0.0062401824938686495    0.005608000000000001     -2.9401002535709484
0.0021704850378728496     0.006278426819278189     0.005608000000000001     -2.734835944646731
0.002155129723566389      0.006316671144687727     0.005608000000000001     -2.529571635722506
0.0021896587233854927     0.006118609313146841     0.005608000000000002     -3.845221577671965
0.002174303409079032      0.006156853638556379     0.005608                 -3.7677751512607953
0.002158948094772572      0.006195097963965918     0.005608                 -3.5625108423365823
0.002143592780466112      0.006233342289375457     0.005608000000000002     -3.3572465334123507
0.002128237466159652      0.0062715866147849955    0.005608000000000002     -3.1519822244881324
0.0021474111516722946     0.006111769108653646     0.005608                 -4.386026617663207
0.0021320558373658345     0.006150013434063185     0.005608                 -4.184921431102204
0.0021167005230593745     0.006188257759472724     0.005608000000000002     -3.979657122177971
0.002101345208752914      0.006226502084882263     0.005608                 -3.774392813253746
0.0021051635799590974     0.006104928904160452     0.005608000000000001     -4.926831657654445
0.0020898082656526373     0.0061431732295699915    0.005608000000000002     -4.602067710943597
0.0020744529513461764     0.006181417554979529     0.005608000000000001     -4.396803402019382
0.0020629160082458993     0.006098088699667258     0.005608000000000002     -5.467636697645687
0.0020475606939394392     0.0061363330250767964    0.005608000000000001     -5.019213990784998
0.0020206684365327012     0.006091248495174064     0.005608000000000001     -6.008441737636916
0.001166666666666667      0.0064                   0.005608000000000001     -3.6003195600562434
0.001186763237473306      0.006360807305744668     0.005608000000000001     -4.032913285684332
0.0012142857142857146     0.006400000000000001     0.005608000000000001     -3.783473460703953
0.0012343822850923538     0.006360807305744668     0.005608000000000001     -4.2476727307268165
0.0012068598082799452     0.006321614611489335     0.005608000000000002     -4.521226157872061
0.0012544788558989928     0.006321614611489335     0.005608000000000001     -4.711872000749684
0.0012269563790865841     0.006282421917234        0.005608                 -5.009539030059793
0.0012745754267056318     0.006282421917234002     0.005608000000000001     -5.1760712707725505
0.0012470529498932231     0.006243229222978668     0.005608000000000001     -5.4978519022475485
0.001294671997512271      0.006243229222978669     0.005608000000000001     -5.6402705407954095
0.0012671495206998623     0.006204036528723335     0.005608000000000002     -5.986164774435288
0.00131476856831891       0.006204036528723335     0.005608000000000001     -6.104469810818262
0.0012872460915065013     0.006164843834468002     0.005608000000000001     -6.474477646623026
0.001334865139125549      0.006164843834468002     0.005608                 -6.947663631281676
0.0013073426623131403     0.006125651140212669     0.005608000000000001     -7.425332469221083
0.0012619047619047623     0.0064                   0.005608000000000002     -3.875406478976492
0.0012820013327114012     0.006360807305744667     0.005608                 -4.339605748999352
0.0013020979035180402     0.006321614611489334     0.005608                 -4.80380501902222
0.0013221944743246794     0.006282421917234001     0.005608000000000002     -5.268004289045102
0.0013422910451313184     0.006243229222978668     0.005608000000000002     -5.732203559067951
0.0013623876159379574     0.006204036528723335     0.005608000000000002     -6.4817712774918315
0.00130952380952381       0.0064                   0.005608                 -3.967339497249041
0.0013296203803304487     0.006360807305744668     0.005608                 -4.431538767271901
0.0013497169511370879     0.006321614611489335     0.005608000000000002     -4.895738037294768
0.001369813521943727      0.006282421917234002     0.005608                 -5.3599373073176135
0.0013899100927503658     0.006243229222978668     0.005608                 -6.015878923701985
0.0013571428571428573     0.006400000000000001     0.005608000000000001     -4.0592725155215685
0.0013772394279494965     0.006360807305744668     0.005608000000000002     -4.523471785544435
0.0013973359987561355     0.006321614611489335     0.005608000000000001     -4.987671055567288
0.0014174325695627745     0.006282421917234001     0.005608                 -5.549986569912136
0.0014047619047619052     0.006400000000000001     0.005608000000000002     -4.151205533794071
0.001424858475568544      0.006360807305744668     0.005608000000000001     -4.615404803816939
0.0014449550463751831     0.006321614611489335     0.005608000000000002     -5.084094216122295
0.0014523809523809526     0.006400000000000001     0.005608000000000001     -4.243138552066652
0.0014724775231875916     0.006360807305744668     0.005608                 -4.618201862332441
0.001579410050208314      0.006105854692917339     0.005608000000000001     -8.27820962751169
0.001561587962371527      0.006148346795055227     0.005608000000000001     -7.720433434075393
0.0015437658745347397     0.006190838897193115     0.005608000000000001     -7.082159927775404
0.0015259437866979527     0.006233330999331003     0.005608000000000001     -6.443886421475401
0.0015081216988611658     0.006275823101468891     0.005608000000000001     -5.8056129151754154
0.0014902996110243787     0.00631831520360678      0.005608000000000001     -5.167339408875421
0.0015340654855591183     0.006109154100799893     0.005608000000000002     -8.166620941645409
0.0015162433977223312     0.006151646202937781     0.005608                 -7.641678383604753
0.001498421309885544      0.00619413830507567      0.005608                 -7.003404877304769
0.0014805992220487572     0.006236630407213558     0.005608000000000002     -6.365131371004771
0.00146277713421197       0.006279122509351446     0.005608000000000002     -5.726857864704779
0.0014887209209099228     0.006112453508682448     0.005608                 -8.055032255779123
0.0014708988330731356     0.006154945610820337     0.005608                 -7.562923333134115
0.0014530767452363487     0.0061974377129582255    0.005608000000000002     -6.924649826834136
0.0014352546573995616     0.006239929815096114     0.005608                 -6.286376320534135
0.0014433763562607272     0.006115752916565003     0.005608000000000001     -7.943443569912795
0.00142555426842394       0.006158245018702891     0.005608000000000002     -7.484168282663468
0.001407732180587153      0.00620073712084078      0.005608000000000001     -6.845894776363481
0.0013980317916115316     0.006119052324447558     0.005608000000000002     -7.8318548840465105
0.0013802097037747445     0.006161544426585446     0.005608000000000001     -7.405413232192848
0.001352687226962336      0.006122351732330114     0.005608000000000001     -7.720266198180207
0.0013256198279643261     0.006082890531948845     0.005608000000000001     -8.84503828639532
0.0013709643926135217     0.006079591124066289     0.005608000000000001     -8.949321108746721
0.001343896993615512      0.00604012992368502      0.005608000000000002     -10.322539264406334
0.0013892415582647075     0.006036830515802465     0.005608000000000001     -10.423041509155226
0.0013621741592666978     0.005997369315421195     0.005608                 -11.80004024241736
0.0014075187239158933     0.005994069907538641     0.005608000000000001     -11.896761909563716
0.0013804513249178836     0.005954608707157371     0.005608000000000001     -13.277541220428386
0.0014257958895670792     0.005951309299274817     0.005608000000000001     -13.370482309972232
0.0013987284905690694     0.005911848098893547     0.005608000000000002     -14.755042198439416
0.001444073055218265      0.005908548691010991     0.005608000000000001     -14.844202710380724
0.0014170056562202553     0.005869087490629722     0.005608000000000001     -16.23254317645045
0.0014623502208694508     0.005865788082747167     0.005608                 -16.37291091091671
0.001435282821871441      0.005826326882365898     0.005608000000000001     -18.225627102034
0.0014163089572627172     0.006076291716183733     0.005608                 -9.093743430008683
0.0014345861229139033     0.00603353110791991      0.005608                 -10.567463830417188
0.001452863288565089      0.005990770499656086     0.005608000000000002     -12.041184230825689
0.001471140454216275      0.005948009891392261     0.005608000000000002     -13.514904631234181
0.0014894176198674606     0.005905249283128436     0.005608000000000002     -15.014680535522485
0.0014616535219119128     0.006072992308301179     0.005608                 -9.238165751270653
0.0014799306875630989     0.006030231700037355     0.005608000000000002     -10.711886151679153
0.0014982078532142845     0.00598747109177353      0.005608                 -12.185606552087652
0.0015164850188654703     0.005944710483509705     0.005608                 -13.656450160128252
0.0015069980865611086     0.006069692900418625     0.005608000000000002     -9.382588072532611
0.0015252752522122944     0.006026932292154799     0.005608000000000001     -10.856308472941118
0.00154355241786348       0.005984171683890975     0.005608                 -12.298219784734016
0.0015523426512103042     0.006066393492536069     0.005608000000000001     -9.527010393794576
0.00157061981686149       0.006023632884272245     0.005608000000000002     -10.939989409339784
0.0015976872158594995     0.006063094084653513     0.005608                 -9.581759033945552
0.0016956528655186047     0.005827668603650346     0.005608000000000001     -17.167231381664735
0.0016793252572420872     0.005866906183817541     0.005608000000000001     -15.72617540704972
0.0016629976489655697     0.005906143763984735     0.005608000000000001     -14.479357396206701
0.001646670040689052      0.00594538134415193      0.005608000000000001     -13.232539385363658
0.0016303424324125347     0.005984618924319124     0.005608000000000001     -11.98572137452064
0.0016140148241360172     0.006023856504486319     0.005608000000000001     -10.738903363677604
0.0016522578582440774     0.005827444983436272     0.005608000000000002     -17.349473519653067
0.0016359302499675597     0.005866682563603467     0.005608                 -15.866520067848615
0.0016196026416910423     0.005905920143770661     0.005608                 -14.619702057005593
0.001603275033414525      0.005945157723937856     0.005608000000000002     -13.37288404616256
0.0015869474251380075     0.00598439530410505      0.005608000000000002     -12.126066035319523
0.00160886285096955       0.005827221363222197     0.005608                 -17.531715657641392
0.0015925352426930327     0.005866458943389391     0.005608                 -16.006864728647514
0.0015762076344165155     0.005905696523556586     0.005608000000000002     -14.760046717804478
0.0015598800261399978     0.00594493410372378      0.005608                 -13.51322870696145
0.0015654678436950228     0.0058269977430081225    0.005608000000000001     -17.713957795629746
0.0015491402354185055     0.005866235323175317     0.005608000000000002     -16.147209389446406
0.0015328126271419878     0.005905472903342511     0.005608000000000001     -14.900391378603373
0.0015220728364204955     0.005826774122794047     0.005608000000000002     -17.896199933618085
0.001505745228143978      0.005866011702961241     0.005608000000000001     -16.287554050245305
0.0014786778291459685     0.005826550502579972     0.005608000000000001     -18.078442071606432
0.0013918955734046172     0.005828918482289261     0.005608000000000001     -17.913465107901743