% Model:              stripline_filter_simple_decomp_new_mesh.mph
% Version:            COMSOL 6.1.0.252
% Date:               May 19 2023, 11:22
% Dimension:          3
% Nodes:              1688
% Expressions:        1
% Description:        Surface
% X                       Y                        Z                        real(emw.Ey)
0.0021666666666666666     0.0063999999999999994    0.001608                 5638.81862730741
0.0021820219809731266     0.006361755674590461     0.0016080000000000003    5271.581682102387
0.002214285714285714      0.0063999999999999994    0.0016080000000000003    4829.717375774095
0.0022296410285921747     0.00636175567459046      0.0016080000000000003    4513.947252633324
0.002197377295279587      0.0063235113491809216    0.001608                 4950.328526608191
0.002244996342898635      0.006323511349180922     0.001608                 4199.869963172763
0.0022127326095860472     0.006285267023771383     0.001608                 4631.680045395521
0.002260351657205095      0.006285267023771383     0.001608                 3887.4855073924105
0.0022280879238925078     0.0062470226983618446    0.001608                 4315.636238464378
0.0022757069715115554     0.006247022698361845     0.0016080000000000003    3576.793885292269
0.002243443238198968      0.006208778372952306     0.001608                 4002.1971058147637
0.0022910622858180155     0.006208778372952306     0.001608                 3267.7950968723367
0.002258798552505428      0.0061705340475427676    0.001608                 3691.3626474466764
0.0023064176001244756     0.006170534047542767     0.001608                 2969.9576421018533
0.0022741538668118884     0.006132289722133228     0.001608                 3391.787607120334
0.002261904761904762      0.0063999999999999994    0.001608                 4078.7679833904494
0.002277260076211222      0.006361755674590461     0.0016079999999999998    3762.721019217108
0.0022926153905176824     0.006323511349180922     0.001608                 3448.3668887239746
0.0023079707048241425     0.006285267023771384     0.001608                 3135.7055919110508
0.002323326019130603      0.0062470226983618446    0.001608                 2824.7371287783376
0.002338681333437063      0.006208778372952306     0.001608                 2520.6741277305173
0.0023095238095238095     0.0063999999999999994    0.001608                 3309.821397492353
0.00232487912383027       0.006361755674590461     0.001608                 2993.4975922864387
0.00234023443813673       0.006323511349180922     0.001608                 2678.866620760734
0.00235558975244319       0.006285267023771383     0.001608                 2365.9284829152393
0.0023709450667496502     0.0062470226983618446    0.001608                 2054.908946926106
0.002357142857142857      0.0063999999999999994    0.001608                 2522.8776180798013
0.0023724981714493176     0.006361755674590462     0.001608                 2206.276971841316
0.0023878534857557777     0.006323511349180922     0.001608                 1891.3691592830392
0.002403208800062238      0.006285267023771383     0.001608                 1572.6620996886213
0.0024047619047619048     0.0064                   0.001608                 1717.9366451527974
0.0024201172190683653     0.006361755674590461     0.001608                 1401.0591578817396
0.0024354725333748254     0.006323511349180922     0.001608                 1073.9335860180613
0.0024523809523809524     0.0064                   0.001608                 894.9984787113403
0.0024677362666874125     0.006361755674590461     0.001608                 558.7234059144251
0.0025                    0.0064                   0.001608                 27.031559377714284
0.0025000000000000005     0.006050000000000001     0.0016080000000000003    31.158921917885248
0.0025000000000000005     0.006100000000000001     0.0016080000000000005    -3.67809228498798E-12
0.0024677362666874134     0.006061755674590462     0.0016080000000000005    508.5682489926427
0.0024677362666874134     0.006111755674590462     0.0016080000000000003    484.368984039476
0.0025000000000000005     0.006150000000000001     0.001608                 -3.1579049260863888E-12
0.0024677362666874125     0.006161755674590461     0.001608                 495.4157195158085
0.0025000000000000005     0.006200000000000001     0.001608                 -2.5952925960480633E-12
0.0024677362666874134     0.006211755674590461     0.0016080000000000003    506.46245499214126
0.0025000000000000005     0.00625                  0.001608                 -1.990255294872998E-12
0.0024677362666874134     0.0062617556745904615    0.0016080000000000003    517.5091904684741
0.0025000000000000005     0.0063                   0.001608                 -1.3427930225611936E-12
0.0024677362666874125     0.006311755674590461     0.001608                 528.5559259448071
0.0025000000000000005     0.006350000000000001     0.001608                 -6.529057791126524E-13
0.0024354725333748254     0.006073511349180923     0.001608                 976.2414512683536
0.0024354725333748254     0.006123511349180922     0.001608                 973.6187839345702
0.0024354725333748254     0.0061735113491809225    0.001608                 995.7122548872348
0.0024354725333748254     0.006223511349180923     0.0016080000000000003    1017.8057258398999
0.0024354725333748254     0.006273511349180923     0.001608                 1039.899196792565
0.0024032088000622382     0.006085267023771384     0.001608                 1449.7579897039602
0.0024032088000622382     0.006135267023771384     0.001608                 1467.749399685279
0.0024032088000622382     0.006185267023771384     0.0016080000000000003    1500.889606114276
0.0024032088000622382     0.006235267023771383     0.001608                 1534.0298125432732
0.0023709450667496507     0.006097022698361845     0.001608                 1929.1178642994614
0.0023709450667496507     0.006147022698361846     0.001608                 1966.7608312916022
0.0023709450667496507     0.006197022698361845     0.001608                 2010.9477731969316
0.002338681333437063      0.006108778372952307     0.001608                 2414.3210750548574
0.002338681333437063      0.006158778372952306     0.001608                 2470.6530787535407
0.002306417600124476      0.006120534047542768     0.001608                 2905.3676219701492
7.321727123280041E-4      0.006176133041791869     0.001608                 3631.927323873379
7.466242296144798E-4      0.006208114035821602     0.0016080000000000003    3877.7978654511953
6.990051819954321E-4      0.006208114035821602     0.0016080000000000003    3132.830823134138
7.134566992819077E-4      0.006240095029851336     0.0016080000000000003    3416.032053775474
7.610757469009553E-4      0.006240095029851335     0.001608                 4156.8378796695215
7.279082165683833E-4      0.006272076023881069     0.001608                 3694.1560351260205
7.755272641874309E-4      0.006272076023881068     0.001608                 4436.798869891276
7.42359733854859E-4       0.006304057017910801     0.001608                 3972.89902109743
7.899787814739065E-4      0.006304057017910801     0.001608                 4717.680836116455
7.568112511413346E-4      0.006336038011940534     0.0016080000000000003    4252.261011689699
8.044302987603822E-4      0.006336038011940534     0.001608                 4999.48377834506
7.712627684278102E-4      0.006368019005970267     0.001608                 4532.242006902832
8.188818160468577E-4      0.006368019005970267     0.001608                 5282.207696577089
7.857142857142857E-4      0.0063999999999999994    0.001608                 4812.842006736827
8.333333333333334E-4      0.0064                   0.001608                 5590.284530035492
6.658376516628601E-4      0.006240095029851335     0.001608                 2649.950133516266
6.802891689493358E-4      0.006272076023881068     0.0016079999999999998    2936.529949462776
6.947406862358113E-4      0.0063040570179108005    0.001608                 3216.9505381056065
7.09192203522287E-4       0.006336038011940535     0.001608                 3497.990131369299
7.236437208087626E-4      0.006368019005970268     0.001608                 3779.648729253854
7.380952380952382E-4      0.0064                   0.001608                 4061.9263317592695
6.326701213302882E-4      0.006272076023881068     0.001608                 2152.7229543925055
6.471216386167637E-4      0.006304057017910801     0.001608                 2443.2254370341648
6.615731559032395E-4      0.006336038011940534     0.001608                 2725.942632969278
6.76024673189715E-4       0.006368019005970267     0.001608                 3009.278833525255
6.904761904761906E-4      0.0063999999999999994    0.001608                 3293.2340387020954
5.995025909977161E-4      0.006304057017910801     0.001608                 1641.1492857628589
6.139541082841918E-4      0.006336038011940534     0.001608                 1936.1185164896372
6.284056255706674E-4      0.006368019005970267     0.001608                 2221.1323197170364
6.428571428571429E-4      0.0063999999999999994    0.001608                 2506.765127565299
5.663350606651442E-4      0.006336038011940534     0.001608                 1115.2291276273252
5.807865779516197E-4      0.006368019005970267     0.001608                 1415.2091878292
5.952380952380953E-4      0.0064                   0.001608                 1702.5195983488816
5.331675303325721E-4      0.006368019005970267     0.001608                 574.9624799859032
5.476190476190477E-4      0.0063999999999999994    0.001608                 880.4974510528459
5.000000000000001E-4      0.0064                   0.001608                 20.349342838594275
0.0015000000000000002     0.006400000000000001     0.001608                 11427.283166878251
0.0015178220878367874     0.006357507897862114     0.0016080000000000003    11176.452725510975
0.001547619047619048      0.006400000000000002     0.0016080000000000003    11401.679274136139
0.001565441135455835      0.006357507897862114     0.0016080000000000003    11119.628744226484
0.0015356441756735743     0.006315015795724225     0.001608                 10910.99461406035
0.001583263223292622      0.006315015795724225     0.001608                 10830.495625952872
0.0015534662635103612     0.006272523693586336     0.001608                 10637.731063580253
0.001601085311129409      0.006272523693586336     0.001608                 10534.279919315308
0.0015712883513471485     0.006230031591448448     0.001608                 10356.662074070693
0.0016189073989661962     0.006230031591448449     0.0016080000000000003    10230.981624313787
0.0015891104391839354     0.00618753948931056      0.001608                 10067.78764553167
0.001636729486802983      0.00618753948931056      0.001608                 9920.60074094831
0.0016069325270207224     0.006145047387172671     0.001608                 9771.107777963174
0.00165455157463977       0.006145047387172671     0.001608                 9612.231715510301
0.0016247546148575095     0.006102555285034783     0.001608                 9425.941270743491
0.0015952380952380957     0.006400000000000001     0.001608                 11303.093851592745
0.0016130601830748824     0.006357507897862112     0.001608                 11000.081517704393
0.0016308822709116696     0.006315015795724225     0.001608                 10689.986595452086
0.0016487043587484567     0.006272523693586336     0.001608                 10372.809084835822
0.0016665264465852438     0.006230031591448448     0.001608                 10048.54898585561
0.001684348534422031      0.00618753948931056      0.001608                 9725.601969039502
0.001642857142857143      0.006400000000000001     0.001608                 11143.055642364347
0.0016606792306939303     0.006357507897862113     0.001608                 10819.081504497302
0.0016785013185307172     0.006315015795724225     0.0016080000000000003    10488.024778266295
0.0016963234063675043     0.006272523693586336     0.001608                 10149.885463671342
0.0017141454942042912     0.006230031591448448     0.001608                 9811.504793712804
0.001690476190476191      0.006400000000000001     0.001608                 10921.564646450952
0.001708298278312978      0.006357507897862113     0.0016080000000000003    10576.628704605208
0.0017261203661497648     0.006315015795724225     0.001608                 10224.61017439551
0.001743942453986552      0.006272523693586336     0.001608                 9869.940189530213
0.0017380952380952385     0.006400000000000001     0.001608                 10638.620863852551
0.0017559173259320254     0.006357507897862113     0.001608                 10272.723118028112
0.0017737394137688125     0.006315015795724225     0.001608                 9900.908156491725
0.001785714285714286      0.006400000000000001     0.0016080000000000003    10294.22429456915
0.001803536373551073      0.006357507897862113     0.0016080000000000003    9904.408694597343
0.0018333333333333337     0.006400000000000001     0.0016080000000000003    9874.330102277685
9.920396292546413E-4      0.006138726631316448     0.001608                 6884.430287223047
0.0010169863488849308     0.006176051398271241     0.0016080000000000003    7301.6483561216655
9.693673012658832E-4      0.006176051398271241     0.0016080000000000003    6769.472902405656
9.943140208961724E-4      0.006213376165226034     0.0016080000000000003    7193.405751822456
0.00104193306851522       0.006213376165226034     0.001608                 7737.246991803005
0.001019260740526462      0.006250700932180827     0.001608                 7631.8723721658625
0.0010668797881455095     0.006250700932180827     0.001608                 8165.437222824892
0.0010442074601567511     0.00628802569913562      0.001608                 8063.425703892669
0.001091826507775799      0.00628802569913562      0.001608                 8586.21904918733
0.0010691541797870406     0.006325350466090415     0.0016080000000000003    8488.065747002875
0.0011167732274060883     0.006325350466090414     0.001608                 8999.592470890315
0.0010941008994173299     0.006362675233045206     0.001608                 8905.792501496479
0.0011417199470363775     0.006362675233045207     0.001608                 9405.557487933851
0.0011190476190476193     0.0063999999999999994    0.001608                 9316.605967373485
0.001166666666666667      0.0064                   0.001608                 9828.10608110058
9.466949732771248E-4      0.006213376165226034     0.001608                 6613.821735537225
9.716416929074141E-4      0.006250700932180827     0.0016079999999999998    7056.3862425551815
9.965884125377037E-4      0.006288025699135621     0.001608                 7506.0482404070335
0.001021535132167993      0.006325350466090414     0.001608                 7948.796949642285
0.0010464818517982822     0.006362675233045207     0.001608                 8384.632370260937
0.0010714285714285717     0.0064                   0.001608                 8813.554502262989
9.240226452883664E-4      0.006250700932180827     0.001608                 6443.295259471513
9.489693649186559E-4      0.00628802569913562      0.001608                 6904.727525706125
9.739160845489453E-4      0.006325350466090414     0.001608                 7365.584901066421
9.988628041792346E-4      0.006362675233045206     0.001608                 7819.528987810119
0.001023809523809524      0.0063999999999999994    0.001608                 8266.559785937217
9.013503172996082E-4      0.00628802569913562      0.001608                 6257.89347420852
9.262970369298977E-4      0.006325350466090414     0.001608                 6738.429601275283
9.51243756560187E-4       0.006362675233045207     0.001608                 7210.482354144027
9.761904761904763E-4      0.0063999999999999994    0.001608                 7675.62181839617
8.7867798931085E-4        0.006325350466090414     0.001608                 6057.616379748248
9.036247089411393E-4      0.006362675233045206     0.001608                 6557.492469262663
9.285714285714288E-4      0.0064                   0.001608                 7040.740599639854
8.560056613220917E-4      0.006362675233045207     0.001608                 5842.463976090694
8.80952380952381E-4       0.0063999999999999994    0.001608                 6361.916129668256
7.692965576032379E-4      0.0061707892688668085    0.0016080000000000003    4163.450794536522
7.837480748897137E-4      0.006202770262896541     0.0016080000000000003    4414.044895486356
8.064204028784719E-4      0.006165445495941749     0.001608                 4664.603407024801
8.208719201649474E-4      0.006197426489971481     0.001608                 4932.623842954674
8.435442481537058E-4      0.006160101723016688     0.001608                 5145.373251572504
8.579957654401814E-4      0.006192082717046422     0.001608                 5429.600823335084
8.806680934289396E-4      0.006154757950091628     0.001608                 5605.760328179631
8.951196107154153E-4      0.006186738944121362     0.0016080000000000003    5904.9758366275855
9.177919387041736E-4      0.006149414177166568     0.001608                 6045.764636846182
9.322434559906492E-4      0.006181395171196301     0.001608                 6358.748882832178
9.549157839794074E-4      0.006144070404241508     0.001608                 6465.386177572154
7.981995921761891E-4      0.006234751256926275     0.0016079999999999998    4693.663745420179
8.353234374514231E-4      0.006229407484001214     0.001608                 5209.608888443926
8.72447282726657E-4       0.006224063711076155     0.001608                 5703.952064379766
9.095711280018908E-4      0.006218719938151094     0.001608                 6176.693273227698
8.126511094626648E-4      0.006266732250956008     0.001608                 4974.505542739992
8.497749547378987E-4      0.006261388478030948     0.001608                 5487.816881319169
8.868988000131327E-4      0.006256044705105887     0.001608                 5979.5262528104395
8.271026267491405E-4      0.006298713244985741     0.001608                 5256.570287445794
8.642264720243743E-4      0.0062933694720606805    0.001608                 5767.247821580401
8.41554144035616E-4       0.006330694239015474     0.001608                 5539.857979537587
0.001186763237473306      0.006360807305744668     0.0016080000000000003    9827.096609632259
0.0012142857142857146     0.006400000000000001     0.0016080000000000003    10280.242023257986
0.0012343822850923538     0.006360807305744668     0.0016080000000000003    10217.34558895606
0.0012068598082799452     0.006321614611489335     0.001608                 9786.469935864945
0.0012544788558989928     0.006321614611489335     0.001608                 10141.902030301051
0.0012269563790865841     0.006282421917234        0.001608                 9732.42200971457
0.0012745754267056318     0.006282421917234002     0.001608                 10053.911347292968
0.0012470529498932231     0.006243229222978668     0.001608                 9664.952831181137
0.001294671997512271      0.006243229222978669     0.0016080000000000003    9953.373539931808
0.0012671495206998623     0.006204036528723335     0.001608                 9584.062400264644
0.00131476856831891       0.006204036528723335     0.001608                 9840.288608217572
0.0012872460915065013     0.006164843834468002     0.001608                 9489.750716965089
0.001334865139125549      0.006164843834468002     0.001608                 9703.239232774918
0.0013073426623131403     0.006125651140212669     0.001608                 9373.487352148562
0.0012619047619047623     0.0064                   0.001608                 10622.89327994344
0.0012820013327114012     0.006360807305744667     0.0016079999999999998    10532.154057068346
0.0013020979035180402     0.006321614611489334     0.001608                 10428.867709840179
0.0013221944743246794     0.006282421917234001     0.001608                 10313.034238258935
0.0013422910451313184     0.006243229222978668     0.001608                 10184.653642324614
0.0013623876159379574     0.006204036528723335     0.001608                 10036.186282138406
0.00130952380952381       0.0064                   0.001608                 10904.043812722206
0.0013296203803304487     0.006360807305744668     0.001608                 10785.461801273956
0.0013497169511370879     0.006321614611489335     0.001608                 10654.332665472626
0.001369813521943727      0.006282421917234002     0.001608                 10510.656405318223
0.0013899100927503658     0.006243229222978668     0.001608                 10350.506482592842
0.0013571428571428573     0.006400000000000001     0.001608                 11123.693621594297
0.0013772394279494965     0.006360807305744668     0.001608                 10977.268821572887
0.0013973359987561355     0.006321614611489335     0.001608                 10818.296897198394
0.0014174325695627745     0.006282421917234001     0.001608                 10646.199834138231
0.0014047619047619052     0.006400000000000001     0.001608                 11281.842706559706
0.001424858475568544      0.006360807305744668     0.001608                 11107.575117965134
0.0014449550463751831     0.006321614611489335     0.001608                 10923.266336774575
0.0014523809523809526     0.006400000000000001     0.001608                 11378.49106761843
0.0014724775231875916     0.006360807305744668     0.001608                 11181.705990501865
0.001579410050208314      0.006105854692917339     0.0016080000000000003    9578.301833153646
0.001561587962371527      0.006148346795055227     0.0016080000000000003    9894.17338650065
0.0015437658745347397     0.006190838897193115     0.001608                 10169.801546701081
0.0015259437866979527     0.006233330999331003     0.001608                 10436.901417206534
0.0015081216988611658     0.006275823101468891     0.0016080000000000003    10695.472998017012
0.0014902996110243787     0.00631831520360678      0.001608                 10945.516289132513
0.0015340654855591183     0.006109154100799893     0.001608                 9669.491718125664
0.0015162433977223312     0.006151646202937781     0.0016079999999999998    9959.348994643071
0.001498421309885544      0.00619413830507567      0.001608                 10213.747247657682
0.0014805992220487572     0.006236630407213558     0.001608                 10459.617210977322
0.00146277713421197       0.006279122509351446     0.001608                 10696.95888460198
0.0014887209209099228     0.006112453508682448     0.001608                 9711.458752750597
0.0014708988330731356     0.006154945610820337     0.001608                 9971.701651404172
0.0014530767452363487     0.0061974377129582255    0.001608                 10204.86999723297
0.0014352546573995616     0.006239929815096114     0.001608                 10429.51005336679
0.0014433763562607272     0.006115752916565003     0.001608                 9704.20293702844
0.00142555426842394       0.006158245018702891     0.001608                 9931.231356783963
0.001407732180587153      0.00620073712084078      0.001608                 10143.16979542694
0.0013980317916115316     0.006119052324447558     0.001608                 9647.724270959192
0.0013802097037747445     0.006161544426585446     0.001608                 9837.93811078243
0.001352687226962336      0.006122351732330114     0.001608                 9542.022754542857
0.0011618165178430167     0.006323482538789874     0.0016080000000000003    9420.804584062294
0.0011368697982127272     0.006286157771835081     0.001608                 9020.548825094851
0.0011119230785824378     0.006248833004880288     0.001608                 8612.389545425112
0.0010869763589521485     0.0062115082379254945    0.0016080000000000003    8196.32674505307
0.001062029639321859      0.0061741834709707006    0.001608                 7772.360423978727
0.0010370829196915698     0.0061368587040159074    0.001608                 7381.037114963601
0.0011819130886496557     0.00628428984453454      0.0016079999999999998    9399.208193360586
0.0011569663690193662     0.006246965077579748     0.001608                 9011.008621144218
0.001132019649389077      0.006209640310624955     0.001608                 8614.90552822555
0.0011070729297587875     0.00617231554367016      0.001608                 8210.89891460458
0.0010821262101284982     0.006134990776715367     0.001608                 7818.237084022435
0.0012020096594562947     0.006245097150279208     0.001608                 9363.316422245834
0.0011770629398260056     0.006207772383324415     0.001608                 8987.173036780538
0.0011521162201957162     0.006170447616369621     0.001608                 8603.126130612942
0.0011271695005654267     0.006133122849414828     0.001608                 8212.189877510109
0.0012221062302629339     0.006205904456023875     0.001608                 9313.12927071804
0.0011971595106326444     0.006168579689069082     0.001608                 8949.042072003815
0.001172212791002355      0.006131254922114288     0.001608                 8562.89549542662
0.0012422028010695728     0.006166711761768541     0.001608                 9248.6467387772
0.0012172560814392836     0.006129386994813748     0.001608                 8870.35393777197
0.0012622993718762118     0.006127519067513208     0.001608                 9134.565204546163
0.0018540601235456438     0.0063549154700972684    0.0016080000000000005    9441.67463430133
0.0018809523809523814     0.006400000000000001     0.0016080000000000005    9402.419009399746
0.0019016791711646912     0.006354915470097268     0.0016080000000000003    8966.87178786407
0.0018747869137579537     0.006309830940194536     0.001608                 9013.484714783794
0.0019224059613770013     0.006309830940194534     0.001608                 8528.948054088225
0.0018955137039702637     0.006264746410291802     0.001608                 8582.737925563553
0.0019431327515893112     0.006264746410291801     0.0016080000000000003    8088.647808072214
0.0019162404941825738     0.006219661880389069     0.001608                 8149.4342666406055
0.0019638595418016215     0.006219661880389069     0.0016080000000000003    7645.971049816038
0.0019369672843948839     0.006174577350486336     0.001608                 7713.57373801495
0.001984586332013931      0.006174577350486335     0.001608                 7200.917779319694
0.0019576940746071935     0.006129492820583603     0.001608                 7275.156339686589
0.002005313122226241      0.006129492820583602     0.001608                 6788.523700831627
0.0019784208648195036     0.00608440829068087      0.001608                 6814.3233224544
0.0019285714285714288     0.006400000000000001     0.001608                 8898.982938098727
0.0019492982187837389     0.006354915470097268     0.001608                 8451.18472425918
0.001970025008996049      0.006309830940194535     0.001608                 8001.0099981794665
0.0019907517992083586     0.006264746410291802     0.0016080000000000003    7548.458759859588
0.0020114785894206687     0.006219661880389069     0.001608                 7093.531009299544
0.0020322053796329787     0.006174577350486336     0.001608                 6659.069253402314
0.0019761904761904764     0.0063999999999999994    0.001608                 8351.798485235864
0.0019969172664027865     0.006354915470097268     0.001608                 7891.749279092452
0.002017644056615096      0.006309830940194535     0.0016080000000000003    7429.32356070887
0.0020383708468274062     0.006264746410291801     0.001608                 6964.521330085121
0.0020590976370397163     0.0062196618803890685    0.001608                 6507.287881798582
0.002023809523809524      0.0064                   0.001608                 7760.86565081116
0.002044536314021834      0.006354915470097268     0.001608                 7288.5654523638805
0.002065263104234144      0.006309830940194534     0.001608                 6813.88874167643
0.002085989894446454      0.0062647464102918       0.001608                 6333.179586020431
0.0020714285714285717     0.0063999999999999994    0.001608                 7126.184434824616
0.0020921553616408814     0.006354915470097266     0.001608                 6641.633244073467
0.0021128821518531914     0.006309830940194534     0.001608                 6136.744366067863
0.002119047619047619      0.0063999999999999994    0.001608                 6447.754837276232
0.002139774409259929      0.006354915470097266     0.001608                 5917.982221940877
0.002231906295098691      0.006125449517640034     0.0016080000000000003    3940.860380204158
0.0022165509807922303     0.0061636938430495725    0.0016080000000000003    4276.544899395525
0.0022011956664857698     0.006201938168459111     0.001608                 4591.205247682838
0.0021858403521793097     0.0062401824938686495    0.001608                 4909.382110852995
0.0021704850378728496     0.006278426819278189     0.0016080000000000003    5231.075488905997
0.002155129723566389      0.006316671144687727     0.001608                 5556.285381841846
0.0021896587233854927     0.006118609313146841     0.001608                 4474.839417370355
0.002174303409079032      0.006156853638556379     0.0016079999999999998    4838.960527574099
0.002158948094772572      0.006195097963965918     0.001608                 5153.6414211197
0.002143592780466112      0.006233342289375457     0.001608                 5471.838829548145
0.002128237466159652      0.0062715866147849955    0.001608                 5793.552752859439
0.0021474111516722946     0.006111769108653646     0.001608                 4984.265570668944