% Model:              stripline_filter_simple_decomp_new_mesh.mph
% Version:            COMSOL 6.1.0.252
% Date:               May 19 2023, 11:17
% Dimension:          3
% Nodes:              1688
% Expressions:        1
% Description:        Surface
% X                       Y                        Z                        real(emw.Hz)
0.001739047872793132      0.005827892223864421     0.005608000000000001     0.3996348793674813
0.001773244014511185      0.005864537376266771     0.005608000000000001     -0.6828416985232539
0.0017227202645166144     0.005867129804031616     0.005608000000000001     -0.7825847789211302
0.0017569164062346675     0.0059037749564339655    0.005608000000000001     -1.679645088131552
0.0018074401562292383     0.005901182528669121     0.005608000000000002     -2.217001372695794
0.0017911125479527206     0.005940420108836316     0.005608000000000001     -3.0900889084435725
0.0018416362979472912     0.005937827681071471     0.005608                 -3.7511610468683263
0.0018253086896707735     0.005977065261238665     0.005608000000000001     -4.500532728755568
0.0018758324396653443     0.005974472833473821     0.005608000000000001     -5.285320721040868
0.0018595048313888268     0.006013710413641016     0.005608000000000001     -5.910976549067599
0.0019100285813833974     0.0060111179858761705    0.005608000000000002     -6.819480395213417
0.00189370097310688       0.006050355566043365     0.005608000000000001     -7.321420369379609
0.0019442247231014505     0.00604776313827852      0.005608000000000001     -8.353640069385957
0.0019278971148249328     0.006087000718445715     0.005608                 -9.13994214086743
0.0019784208648195036     0.00608440829068087      0.005608000000000001     -10.604170935928185
0.0017063926562400971     0.00590636738419881      0.005608000000000002     -1.2007591928577996
0.00174058879795815       0.0059430125366011595    0.005608                 -2.2692135457030815
0.001774784939676203      0.00597965768900351      0.005608                 -3.679657366015089
0.0018089810813942562     0.00601630284140586      0.005608000000000002     -5.090101186327114
0.0018431772231123095     0.00605294799380821      0.005608000000000002     -6.5005450066391415
0.0018773733648303624     0.006089593146210559     0.005608000000000002     -8.165256497213075
0.0016900650479635794     0.005945604964366005     0.005608                 -1.618933606794466
0.0017242611896816323     0.005982250116768355     0.005608                 -2.8587820032746016
0.0017584573313996856     0.006018895269170705     0.005608000000000002     -4.269225823586632
0.0017926534731177385     0.006055540421573054     0.005608                 -5.679669643898642
0.0018268496148357918     0.006092185573975404     0.005608                 -7.190570853558722
0.001673737439687062      0.005984842544533199     0.005608000000000001     -2.037108020731144
0.0017079335814051153     0.00602148769693555      0.005608000000000002     -3.4483504608461457
0.0017421297231231681     0.006058132849337899     0.005608000000000001     -4.858794281158156
0.0017763258648412212     0.006094778001740249     0.005608                 -6.215885209904368
0.0016574098314105445     0.006024080124700394     0.005608000000000002     -2.4552824346678177
0.0016916059731285976     0.006060725277102744     0.005608000000000001     -4.03791891841768
0.0017258021148466507     0.006097370429505094     0.005608000000000002     -5.241199566250012
0.001641082223134027      0.006063317704867588     0.005608000000000001     -2.873456848604501
0.0016752783648520799     0.006099962857269938     0.005608                 -4.2665139225956565
0.0016247546148575095     0.006102555285034783     0.005608000000000001     -3.1193325724864365
0.0025000000000000005     0.006050000000000001     0.005608000000000002     -13.482909894158162
0.0025000000000000005     0.006100000000000001     0.005608000000000002     -15.488925843576581
0.0024677362666874134     0.006061755674590462     0.005608000000000002     -13.803292578979079
0.0024677362666874134     0.006111755674590462     0.005608000000000001     -15.803979370935222
0.0025000000000000005     0.006150000000000001     0.005608000000000002     -17.011935775032228
0.0024677362666874125     0.006161755674590461     0.005608000000000001     -17.326989302390857
0.0025000000000000005     0.006200000000000001     0.005608000000000001     -18.53494570648788
0.0024677362666874134     0.006211755674590461     0.005608000000000001     -18.849999233846514
0.0025000000000000005     0.00625                  0.005608000000000002     -20.057955637943525
0.0024677362666874134     0.0062617556745904615    0.005608000000000001     -20.37300916530215
0.0025000000000000005     0.0063                   0.005608000000000002     -21.58096556939916
0.0024677362666874125     0.006311755674590461     0.005608000000000001     -21.896019096757783
0.0025000000000000005     0.006350000000000001     0.005608000000000001     -23.103975500854816
0.0024677362666874125     0.006361755674590461     0.005608                 -22.910679397252657
0.0025                    0.0064                   0.005608000000000001     -23.920119832967636
0.0024354725333748254     0.006073511349180923     0.005608000000000002     -14.175945306758369
0.0024354725333748254     0.006123511349180922     0.005608000000000002     -16.119032898293845
0.0024354725333748254     0.0061735113491809225    0.005608000000000002     -17.6420428297495
0.0024354725333748254     0.006223511349180923     0.005608000000000002     -19.165052761205146
0.0024354725333748254     0.006273511349180923     0.005608000000000002     -20.688062692660793
0.0024354725333748254     0.006323511349180922     0.005608000000000002     -21.901238961537715
0.0024032088000622382     0.006085267023771384     0.005608000000000001     -14.548598034537655
0.0024032088000622382     0.006135267023771384     0.005608000000000002     -16.434086425652495
0.0024032088000622382     0.006185267023771384     0.005608000000000002     -17.957096357108135
0.0024032088000622382     0.006235267023771383     0.005608                 -19.480106288563775
0.002403208800062238      0.006285267023771383     0.005608                 -20.891798525822743
0.0023709450667496507     0.006097022698361845     0.005608000000000002     -14.921250762316943
0.0023709450667496507     0.006147022698361846     0.005608000000000002     -16.749139953011124
0.0023709450667496507     0.006197022698361845     0.005608000000000001     -18.272149884466764
0.0023709450667496502     0.0062470226983618446    0.005608                 -19.88235809010778
0.002338681333437063      0.006108778372952307     0.005608000000000002     -15.293903490096227
0.002338681333437063      0.006158778372952306     0.005608000000000001     -17.064193480369763
0.002338681333437063      0.006208778372952306     0.005608000000000002     -18.872917654392822
0.002306417600124476      0.006120534047542768     0.005608000000000001     -15.6665562178755
0.0023064176001244756     0.006170534047542767     0.005608                 -17.863477218677858
0.0022741538668118884     0.006132289722133228     0.005608000000000001     -16.342803244466342
0.0015000000000000002     0.006400000000000001     0.005608000000000001     0.08772558559771833
0.0015178220878367874     0.006357507897862114     0.005608000000000001     -0.5457117832904733
0.001547619047619048      0.006400000000000002     0.005608000000000001     -1.939407178228698
0.001565441135455835      0.006357507897862114     0.005608000000000001     -2.364351335574061
0.0015356441756735743     0.006315015795724225     0.005608000000000002     -1.036305707028035
0.001583263223292622      0.006315015795724225     0.005608000000000001     -2.7892954929194334
0.0015534662635103612     0.006272523693586336     0.005608                 -1.5268996307655973
0.001601085311129409      0.006272523693586336     0.005608000000000001     -3.2142396502648047
0.0015712883513471485     0.006230031591448448     0.005608000000000001     -2.017493554503155
0.0016189073989661962     0.006230031591448449     0.005608000000000001     -3.6391838076101735
0.0015891104391839354     0.00618753948931056      0.005608000000000002     -2.5080874782407134
0.001636729486802983      0.00618753948931056      0.005608000000000001     -4.064127964955541
0.0016069325270207224     0.006145047387172671     0.005608000000000001     -2.998681401978277
0.00165455157463977       0.006145047387172671     0.005608                 -4.325739580049769
0.0015952380952380957     0.006400000000000001     0.005608000000000002     -3.477904500265155
0.0016130601830748824     0.006357507897862112     0.005608000000000001     -3.9028486576105217
0.0016308822709116696     0.006315015795724225     0.005608000000000001     -4.3277928149558935
0.0016487043587484567     0.006272523693586336     0.005608000000000002     -4.752736972301269
0.0016665264465852438     0.006230031591448448     0.005608000000000002     -5.177681129646635
0.001684348534422031      0.00618753948931056      0.005608000000000002     -5.575197408977692
0.001642857142857143      0.006400000000000001     0.005608000000000001     -5.016401822301616
0.0016606792306939303     0.006357507897862113     0.005608000000000001     -5.441345979646986
0.0016785013185307172     0.006315015795724225     0.005608000000000002     -5.866290136992355
0.0016963234063675043     0.006272523693586336     0.005608000000000001     -6.291234294337727
0.0017141454942042912     0.006230031591448448     0.005608000000000001     -6.82465523790561
0.001690476190476191      0.006400000000000001     0.005608000000000002     -6.554899144338076
0.001708298278312978      0.006357507897862113     0.005608000000000002     -6.979843301683442
0.0017261203661497648     0.006315015795724225     0.005608000000000002     -7.404787459028814
0.001743942453986552      0.006272523693586336     0.005608000000000001     -8.074113066833538
0.0017380952380952385     0.006400000000000001     0.005608000000000002     -8.093396466374536
0.0017559173259320254     0.006357507897862113     0.005608000000000001     -8.518340623719906
0.0017737394137688125     0.006315015795724225     0.005608000000000002     -9.323570895761467
0.001785714285714286      0.006400000000000001     0.005608000000000002     -9.631893788410999
0.001803536373551073      0.006357507897862113     0.005608000000000001     -10.57302872468938
0.0018333333333333337     0.006400000000000001     0.005608000000000002     -11.921148944297771
0.0019576940746071935     0.006129492820583604     0.005608000000000001     -11.335186746258877
0.0019071703246126232     0.006132085248348448     0.005608000000000001     -9.80488666063976
0.0019369672843948839     0.006174577350486336     0.005608000000000002     -11.495410265419547
0.0018864435344003129     0.006177169778251181     0.005608000000000001     -10.061753229236283
0.0019162404941825736     0.0062196618803890685    0.005608000000000001     -11.655633784580221
0.001865716744188003      0.006222254308153914     0.005608000000000001     -10.31861979783282
0.0018955137039702637     0.006264746410291802     0.005608000000000002     -11.815857303740898
0.0018449899539756931     0.006267338838056647     0.005608000000000002     -10.575486366429336
0.0018747869137579537     0.006309830940194536     0.005608000000000002     -11.976080822901574
0.001824263163763383      0.00631242336795938      0.005608000000000001     -10.832352935025867
0.0018540601235456438     0.0063549154700972684    0.005608000000000002     -12.136304342062257
0.0018566465746180523     0.006134677676113292     0.005608                 -8.676390736071532
0.0018359197844057423     0.0061797622060160255    0.005608000000000002     -8.93325730466806
0.0018151929941934326     0.006224846735918758     0.005608000000000002     -9.190123873264586
0.0017944662039811226     0.006269931265821491     0.005608000000000002     -9.446990441861114
0.0018061228246234818     0.006137270103878137     0.005608000000000001     -7.547894811503303
0.0017853960344111721     0.006182354633780871     0.005608000000000002     -7.804761380099835
0.001764669244198862      0.0062274391636836035    0.005608000000000001     -8.06162794869636
0.0017555990746289114     0.0061398625316429825    0.005608000000000002     -6.419398886935081
0.0017348722844166013     0.006184947061545714     0.005608000000000002     -6.676265455531611
0.0017050753246343406     0.006142454959407826     0.005608000000000001     -5.290902962366859
0.0021666666666666666     0.0063999999999999994    0.005608000000000001     -20.36181490731492
0.0021820219809731266     0.006361755674590461     0.005608000000000001     -20.056942461436723
0.002214285714285714      0.0063999999999999994    0.005608000000000001     -20.538587621845885
0.0022296410285921747     0.00636175567459046      0.005608000000000001     -20.173440923142792
0.002197377295279587      0.0063235113491809216    0.005608000000000002     -19.529710873889634
0.002244996342898635      0.006323511349180922     0.005608000000000001     -19.8082942244397
0.0022127326095860472     0.006285267023771383     0.005608                 -19.00247928634255
0.002260351657205095      0.006285267023771383     0.005608000000000001     -19.443147525736606
0.0022280879238925078     0.0062470226983618446    0.005608000000000001     -18.475247698795453
0.0022757069715115554     0.006247022698361845     0.005608000000000001     -19.078000827033517
0.002243443238198968      0.006208778372952306     0.005608000000000002     -17.94801611124837
0.0022910622858180155     0.006208778372952306     0.005608000000000001     -18.712854128330427
0.002258798552505428      0.0061705340475427676    0.005608000000000001     -17.420784523701286
0.002261904761904762      0.0063999999999999994    0.005608000000000002     -20.98436539047571
0.002277260076211222      0.006361755674590461     0.005608                 -20.619218691772616
0.0022926153905176824     0.006323511349180922     0.005608                 -20.254071993069523
0.0023079707048241425     0.006285267023771384     0.005608000000000002     -19.888925294366427
0.002323326019130603      0.0062470226983618446    0.005608000000000002     -19.523778595663337
0.0023095238095238095     0.0063999999999999994    0.005608                 -21.43014315910553
0.00232487912383027       0.006361755674590461     0.005608                 -21.06499646040244
0.00234023443813673       0.006323511349180922     0.005608000000000002     -20.69984976169934
0.00235558975244319       0.006285267023771383     0.005608                 -20.334703062996248
0.002357142857142857      0.0063999999999999994    0.005608000000000001     -21.875920927735358
0.0023724981714493176     0.006361755674590462     0.005608000000000002     -21.510774229032258
0.0023878534857557777     0.006323511349180922     0.005608000000000001     -21.145627530329172
0.0024047619047619048     0.0064                   0.005608000000000002     -22.321698696365182
0.0024201172190683653     0.006361755674590461     0.005608000000000001     -21.956551997662082
0.0024523809523809524     0.0064                   0.005608000000000001     -22.767476464995
0.0018809523809523814     0.006400000000000001     0.005608000000000002     -13.232562711132767
0.0019016791711646912     0.006354915470097268     0.005608000000000001     -13.168982241407935
0.0019224059613770013     0.006309830940194534     0.005608000000000001     -13.105401771683113
0.0019431327515893112     0.006264746410291801     0.005608000000000001     -13.04182130195829
0.0019638595418016215     0.006219661880389069     0.005608000000000001     -12.978240832233467
0.001984586332013931      0.006174577350486335     0.005608000000000001     -12.914660362508641
0.002005313122226241      0.006129492820583602     0.005608                 -12.365932347205655
0.0019285714285714288     0.006400000000000001     0.005608000000000002     -14.346651696606818
0.0019492982187837389     0.006354915470097268     0.005608000000000002     -14.283071226882
0.001970025008996049      0.006309830940194535     0.005608000000000002     -14.219490757157178
0.0019907517992083586     0.006264746410291802     0.005608000000000002     -14.15591028743236
0.0020114785894206687     0.006219661880389069     0.005608000000000002     -14.092329817707537
0.0020322053796329787     0.006174577350486336     0.005608000000000002     -13.720996528398768
0.0019761904761904764     0.0063999999999999994    0.005608000000000001     -15.460740682080875
0.0019969172664027865     0.006354915470097268     0.005608000000000002     -15.397160212356063
0.002017644056615096      0.006309830940194535     0.005608000000000002     -15.333579742631235
0.0020383708468274062     0.006264746410291801     0.005608                 -15.269999272906412
0.0020590976370397163     0.0062196618803890685    0.005608                 -15.076060709591875
0.002023809523809524      0.0064                   0.005608000000000002     -16.57482966755494
0.002044536314021834      0.006354915470097268     0.005608000000000002     -16.511249197830118
0.002065263104234144      0.006309830940194534     0.005608000000000001     -16.4476687281053
0.002085989894446454      0.0062647464102918       0.005608                 -16.431124890785007
0.0020714285714285717     0.0063999999999999994    0.005608000000000002     -17.688918653029003
0.0020921553616408814     0.006354915470097266     0.005608000000000001     -17.62533818330418
0.0021128821518531914     0.006309830940194534     0.005608000000000002     -17.786189071978118
0.002119047619047619      0.0063999999999999994    0.005608000000000001     -18.80300763850306
0.002139774409259929      0.006354915470097266     0.005608                 -19.14125325317122
0.002231906295098691      0.006125449517640034     0.005608000000000001     -15.251915671111314
0.0022165509807922303     0.0061636938430495725    0.005608000000000001     -16.0964969556088
0.0022011956664857698     0.006201938168459111     0.005608000000000001     -16.785813431999877
0.0021858403521793097     0.0062401824938686495    0.005608000000000001     -17.47512990839097
0.0021704850378728496     0.006278426819278189     0.005608000000000001     -18.164446384782053
0.002155129723566389      0.006316671144687727     0.005608000000000001     -18.85376286117313
0.0021896587233854927     0.006118609313146841     0.005608000000000002     -14.454423657858804
0.002174303409079032      0.006156853638556379     0.005608                 -15.253354524812536
0.002158948094772572      0.006195097963965918     0.005608                 -15.942671001203616
0.002143592780466112      0.006233342289375457     0.005608000000000002     -16.631987477594695
0.002128237466159652      0.0062715866147849955    0.005608000000000002     -17.32130395398579
0.0021474111516722946     0.006111769108653646     0.005608                 -13.656931644606292
0.0021320558373658345     0.006150013434063185     0.005608                 -14.410212094016277
0.0021167005230593745     0.006188257759472724     0.005608000000000002     -15.099528570407362
0.002101345208752914      0.006226502084882263     0.005608                 -15.788845046798436
0.0021051635799590974     0.006104928904160452     0.005608000000000001     -12.859439631353794
0.0020898082656526373     0.0061431732295699915    0.005608000000000002     -13.567069663220018
0.0020744529513461764     0.006181417554979529     0.005608000000000001     -14.256386139611099
0.0020629160082458993     0.006098088699667258     0.005608000000000002     -12.061947618101282
0.0020475606939394392     0.0061363330250767964    0.005608000000000001     -12.723927232423748
0.0020206684365327012     0.006091248495174064     0.005608000000000001     -11.264455604848774
0.001166666666666667      0.0064                   0.005608000000000001     11.774547986446947
0.001186763237473306      0.006360807305744668     0.005608000000000001     10.806215972872426
0.0012142857142857146     0.006400000000000001     0.005608000000000001     9.7387811750034
0.0012343822850923538     0.006360807305744668     0.005608000000000001     8.917549680952204
0.0012068598082799452     0.006321614611489335     0.005608000000000002     9.867490745893736
0.0012544788558989928     0.006321614611489335     0.005608000000000001     8.096318186901009
0.0012269563790865841     0.006282421917234        0.005608                 8.92876551891505
0.0012745754267056318     0.006282421917234002     0.005608000000000001     7.275086692849808
0.0012470529498932231     0.006243229222978668     0.005608000000000001     7.9900402919363644
0.001294671997512271      0.006243229222978669     0.005608000000000001     6.453855198798614
0.0012671495206998623     0.006204036528723335     0.005608000000000002     7.051315064957674
0.00131476856831891       0.006204036528723335     0.005608000000000001     5.632623704747419
0.0012872460915065013     0.006164843834468002     0.005608000000000001     6.1125898379789945
0.001334865139125549      0.006164843834468002     0.005608                 4.707458469551295
0.0013073426623131403     0.006125651140212669     0.005608000000000001     5.2078525368895185
0.0012619047619047623     0.0064                   0.005608000000000002     8.177886391819335
0.0012820013327114012     0.006360807305744667     0.005608                 7.356654897768138
0.0013020979035180402     0.006321614611489334     0.005608                 6.53542340371694
0.0013221944743246794     0.006282421917234001     0.005608000000000002     5.7141919096657405
0.0013422910451313184     0.006243229222978668     0.005608000000000002     4.892960415614548
0.0013623876159379574     0.006204036528723335     0.005608000000000002     3.978222609041527
0.00130952380952381       0.0064                   0.005608                 6.616991608635264
0.0013296203803304487     0.006360807305744668     0.005608                 5.79576011458407
0.0013497169511370879     0.006321614611489335     0.005608000000000002     4.9745286205328725
0.001369813521943727      0.006282421917234002     0.005608                 4.15329712648168
0.0013899100927503658     0.006243229222978668     0.005608                 3.2489867485317627
0.0013571428571428573     0.006400000000000001     0.005608000000000001     5.056096825451199
0.0013772394279494965     0.006360807305744668     0.005608000000000002     4.234865331400005
0.0013973359987561355     0.006321614611489335     0.005608000000000001     3.4136338373488053
0.0014174325695627745     0.006282421917234001     0.005608                 2.5197508880219965
0.0014047619047619052     0.006400000000000001     0.005608000000000002     3.495202042267132
0.001424858475568544      0.006360807305744668     0.005608000000000001     2.673970548215941
0.0014449550463751831     0.006321614611489335     0.005608000000000002     1.790515027512231
0.0014523809523809526     0.006400000000000001     0.005608000000000001     1.9343072590830659
0.0014724775231875916     0.006360807305744668     0.005608                 1.0612791670024677
0.001579410050208314      0.006105854692917339     0.005608000000000001     -1.8963836190879628
0.001561587962371527      0.006148346795055227     0.005608000000000001     -1.7717358816756876
0.0015437658745347397     0.006190838897193115     0.005608000000000001     -1.2154921915459378
0.0015259437866979527     0.006233330999331003     0.005608000000000001     -0.659248501416188
0.0015081216988611658     0.006275823101468891     0.005608000000000001     -0.10300481128643899
0.0014902996110243787     0.00631831520360678      0.005608000000000001     0.4532388788433108
0.0015340654855591183     0.006109154100799893     0.005608000000000002     -0.8026825343796276
0.0015162433977223312     0.006151646202937781     0.005608                 -0.49668375965927763
0.001498421309885544      0.00619413830507567      0.005608                 0.059559930470471756
0.0014805992220487572     0.006236630407213558     0.005608000000000002     0.6158036206002221
0.00146277713421197       0.006279122509351446     0.005608000000000002     1.1720473107299738
0.0014887209209099228     0.006112453508682448     0.005608                 0.2910185503287048
0.0014708988330731356     0.006154945610820337     0.005608                 0.7783683623571341
0.0014530767452363487     0.0061974377129582255    0.005608000000000002     1.3346120524868832
0.0014352546573995616     0.006239929815096114     0.005608                 1.8908557426166328
0.0014433763562607272     0.006115752916565003     0.005608000000000001     1.384719635037039
0.00142555426842394       0.006158245018702891     0.005608000000000002     2.0534204843735444
0.001407732180587153      0.00620073712084078      0.005608000000000001     2.6096641745032945
0.0013980317916115316     0.006119052324447558     0.005608000000000002     2.4784207197453725
0.0013802097037747445     0.006161544426585446     0.005608000000000001     3.3284726063899566
0.001352687226962336      0.006122351732330114     0.005608000000000001     3.572121804453706
0.0013256198279643261     0.006082890531948845     0.005608000000000001     4.08303759433762
0.0013709643926135217     0.006079591124066289     0.005608000000000001     2.592933914675182
0.001343896993615512      0.00604012992368502      0.005608000000000002     3.3425662173206616
0.0013892415582647075     0.006036830515802465     0.005608000000000001     2.0889052587195613
0.0013621741592666978     0.005997369315421195     0.005608                 2.6020948403037005
0.0014075187239158933     0.005994069907538641     0.005608000000000001     1.5848766027639454
0.0013804513249178836     0.005954608707157371     0.005608000000000001     1.8616234632867414
0.0014257958895670792     0.005951309299274817     0.005608000000000001     1.080847946808325
0.0013987284905690694     0.005911848098893547     0.005608000000000002     1.1211520862697828
0.001444073055218265      0.005908548691010991     0.005608000000000001     0.5768192908527046
0.0014170056562202553     0.005869087490629722     0.005608000000000001     0.38068070925282577
0.0014623502208694508     0.005865788082747167     0.005608                 0.3538594164646828
0.001435282821871441      0.005826326882365898     0.005608000000000001     0.07952221999205138
0.0014163089572627172     0.006076291716183733     0.005608                 1.6805838672749251
0.0014345861229139033     0.00603353110791991      0.005608                 1.176555211319306
0.001452863288565089      0.005990770499656086     0.005608000000000002     0.6725265553636903
0.001471140454216275      0.005948009891392261     0.005608000000000002     0.16849789940807047
0.0014894176198674606     0.005905249283128436     0.005608000000000002     -0.13459950507979693
0.0014616535219119128     0.006072992308301179     0.005608                 0.7682338198746688
0.0014799306875630989     0.006030231700037355     0.005608000000000002     0.26420516391904825
0.0014982078532142845     0.00598747109177353      0.005608                 -0.23982349203657186
0.0015164850188654703     0.005944710483509705     0.005608                 -0.6230584266242717
0.0015069980865611086     0.006069692900418625     0.005608000000000002     -0.1441162275255946
0.0015252752522122944     0.006026932292154799     0.005608000000000001     -0.6481448834812102
0.00154355241786348       0.005984171683890975     0.005608                 -1.1115173481687448
0.0015523426512103042     0.006066393492536069     0.005608000000000001     -1.0564662749258493
0.00157061981686149       0.006023632884272245     0.005608000000000002     -1.5999762697132223
0.0015976872158594995     0.006063094084653513     0.005608                 -2.088435191257692
0.0016956528655186047     0.005827668603650346     0.005608000000000001     0.19634880406148658
0.0016793252572420872     0.005866906183817541     0.005608000000000001     -0.9741522086802532
0.0016629976489655697     0.005906143763984735     0.005608000000000001     -1.2209325789820522
0.001646670040689052      0.00594538134415193      0.005608000000000001     -1.467712949283864
0.0016303424324125347     0.005984618924319124     0.005608000000000001     -1.7144933195856575
0.0016140148241360172     0.006023856504486319     0.005608000000000001     -1.9612736898874712
0.0016522578582440774     0.005827444983436272     0.005608000000000002     0.18496628878675175
0.0016359302499675597     0.005866682563603467     0.005608                 -0.6523361273377442
0.0016196026416910423     0.005905920143770661     0.005608                 -0.8991164976395605
0.001603275033414525      0.005945157723937856     0.005608000000000002     -1.1458968679413541
0.0015869474251380075     0.00598439530410505      0.005608000000000002     -1.3926772382431776
0.00160886285096955       0.005827221363222197     0.005608                 0.17358377351201515
0.0015925352426930327     0.005866458943389391     0.005608                 -0.3305200459952461
0.0015762076344165155     0.005905696523556586     0.005608000000000002     -0.5773004162970434
0.0015598800261399978     0.00594493410372378      0.005608                 -0.8240807865988586
0.0015654678436950228     0.0058269977430081225    0.005608000000000001     0.16220125823724946
0.0015491402354185055     0.005866235323175317     0.005608000000000002     -0.00870396465273792
0.0015328126271419878     0.005905472903342511     0.005608000000000001     -0.2554843349545478
0.0015220728364204955     0.005826774122794047     0.005608000000000002     0.150818742962521
0.001505745228143978      0.005866011702961241     0.005608000000000001     0.31311211668976674
0.0014786778291459685     0.005826550502579972     0.005608000000000001     0.13943622768779296
0.0013918955734046172     0.005828918482289261     0.005608000000000001     -0.10367569376298169
0.0013736184077534313     0.005871679090553085     0.005608000000000001     0.10117928281440172