% Model:              stripline_filter_simple_decomp_new_mesh.mph
% Version:            COMSOL 6.1.0.252
% Date:               May 4 2023, 12:35
% Dimension:          3
% Nodes:              2339
% Expressions:        1
% Description:        Surface
% X                       Y                        Z                        real(emw.Ey)
7.079896247619884E-4      0.0017185324347857704    0.005608                 -3046.721083502134
6.782768212245616E-4      0.0017444563726735174    0.005608                 -2613.995342639087
6.782768212245616E-4      0.0017044563726735175    0.005608                 -2616.0133699656217
6.485640176871347E-4      0.0017303803105612645    0.005608                 -2168.0939264828257
6.485640176871345E-4      0.0017703803105612644    0.005608                 -2199.763735704019
6.188512141497076E-4      0.0017563042484490113    0.005608                 -1747.4688560271343
6.188512141497076E-4      0.0017963042484490115    0.005608                 -1778.5207184937108
5.891384106122808E-4      0.0017822281863367586    0.005608                 -1320.3469281510065
5.891384106122807E-4      0.0018222281863367585    0.005608                 -1350.2662910081638
5.594256070748538E-4      0.0018081521242245058    0.005608000000000001     -886.7281428544417
5.594256070748538E-4      0.0018481521242245057    0.005608                 -915.0004532473774
5.297128035374269E-4      0.0018340760621122529    0.005608                 -446.61250013743893
5.297128035374269E-4      0.001874076062112253     0.005608                 -472.7232052113511
5.0E-4                    0.0018599999999999999    0.005608                 0
5.0E-4                    0.0019                   0.005608                 -23.43454690008548
6.485640176871345E-4      0.0016903803105612646    0.005608                 -2178.0106757209737
6.188512141497075E-4      0.0017163042484490115    0.005608                 -1726.6465772694096
5.891384106122807E-4      0.0017422281863367587    0.005608                 -1304.7302190827127
5.594256070748538E-4      0.001768152124224506     0.005608                 -876.3170034755792
5.297128035374269E-4      0.0017940760621122528    0.005608                 -441.40693044800815
5.0E-4                    0.00182                  0.005608                 0
6.188512141497076E-4      0.0016763042484490116    0.005608                 -1742.9865399012829
5.891384106122807E-4      0.0017022281863367588    0.005608                 -1289.1135100144193
5.594256070748538E-4      0.001728152124224506     0.005608                 -865.9058640967168
5.297128035374269E-4      0.0017540760621122529    0.005608                 -436.2013607585769
5.0E-4                    0.00178                  0.005608                 0
5.891384106122807E-4      0.001662228186336759     0.005608                 -1310.9409625065496
5.594256070748538E-4      0.001688152124224506     0.005608                 -855.4947247178543
5.297128035374269E-4      0.001714076062112253     0.005608                 -430.99579106914575
5.0E-4                    0.00174                  0.005608                 0
5.594256070748538E-4      0.0016481521242245058    0.005608                 -881.8739435367736
5.297128035374268E-4      0.0016740760621122529    0.005608                 -425.7902213797141
5.0E-4                    0.0017000000000000001    0.005608                 0
5.297128035374269E-4      0.0016340760621122532    0.005608                 -455.78548299195506
5.0E-4                    0.00166                  0.005608                 0
5.0E-4                    0.0016200000000000001    0.005608                 -21.7837205813957
7.150037351086203E-4      0.0016816274980726588    0.005608                 -3005.5639359789457
6.852909315711933E-4      0.001667551435960406     0.005608                 -2574.276824757844
6.555781280337663E-4      0.0016534753738481527    0.005608                 -2147.3457832883378
6.258653244963395E-4      0.0016393993117358998    0.005608                 -1722.4575767103213
5.961525209589126E-4      0.0016253232496236474    0.005608000000000001     -1299.6122050237932
5.664397174214857E-4      0.0016112471875113941    0.005608                 -878.8096682287548
5.367269138840587E-4      0.0015971711253991413    0.005608                 -428.26678180766714
7.220178454552521E-4      0.0016447225613595471    0.005608                 -2913.7304556499075
6.92305041917825E-4       0.001630646499247294     0.005608                 -2494.424645505311
6.625922383803983E-4      0.0016165704371350414    0.005608                 -2076.4118895731845
6.328794348429713E-4      0.0016024943750227885    0.005608                 -1660.441968532547
6.031666313055443E-4      0.0015884183129105357    0.005608                 -1246.5148823833993
5.734538277681175E-4      0.0015743422507982826    0.005608                 -804.7287449433235
7.290319558018838E-4      0.0016078176246464354    0.005608                 -2817.692160587504
6.99319152264457E-4       0.0015937415625341825    0.005608                 -2410.248062655567
6.6960634872703E-4        0.0015796655004219297    0.005608                 -2001.1535922608196
6.398935451896032E-4      0.0015655894383096768    0.005608                 -1594.1019567575618
6.101807416521762E-4      0.001551513376197424     0.005608                 -1162.0614702790626
7.360460661485157E-4      0.0015709126879333239    0.005608                 -2717.4490507917344
7.063332626110889E-4      0.001556836625821071     0.005608                 -2321.7470762086095
6.766204590736619E-4      0.0015427605637088181    0.005608                 -1921.5708913512417
6.46907655536235E-4       0.001528684501596565     0.005608                 -1500.2649578148848
7.430601764951475E-4      0.0015340077512202121    0.005608                 -2613.0011262626017
7.133473729577206E-4      0.0015199316891079593    0.005608                 -2228.921686164439
6.836345694202937E-4      0.0015058556269957064    0.005608                 -1819.3392075507904
7.500742868417794E-4      0.0014971028145071004    0.005608                 -2504.3483870001032
7.203614833043525E-4      0.0014830267523948475    0.005608                 -2119.284219486779
7.570883971884112E-4      0.0014601978777939889    0.005608                 -2401.3918572127545
5.0E-4                    0.00134                  0.005608                 2.222101993527
5.367269138840588E-4      0.0013571711253991415    0.005608                 -300.4621059817653
5.0E-4                    0.0013800000000000002    0.005608                 0
5.367269138840588E-4      0.0013971711253991414    0.005608                 -316.9923376080135
5.734538277681175E-4      0.0013743422507982825    0.005608                 -616.4452025678015
5.734538277681175E-4      0.0014143422507982824    0.005608                 -647.6408432695215
6.101807416521762E-4      0.0013915133761974237    0.005608                 -944.6161367678175
6.101807416521763E-4      0.0014315133761974238    0.005608                 -991.9455169845244
6.46907655536235E-4       0.001408684501596565     0.005608                 -1284.974908581813
6.469076555362351E-4      0.0014486845015965653    0.005608000000000001     -1349.9063587530213
6.836345694202937E-4      0.0014258556269957064    0.005608                 -1637.521518009789
6.836345694202937E-4      0.0014658556269957063    0.005608                 -1721.5233685750136
7.203614833043525E-4      0.0014430267523948476    0.005608                 -2002.2559650517444
5.0E-4                    0.00142                  0.005608                 0
5.367269138840587E-4      0.0014371711253991413    0.005608                 -332.8905895444365
5.734538277681174E-4      0.0014543422507982827    0.005608                 -679.4373471423678
6.101807416521762E-4      0.001471513376197424     0.005608                 -1039.6402727937937
6.46907655536235E-4       0.0014886845015965652    0.005608                 -1413.4993664987137
5.0E-4                    0.00146                  0.005608                 0
5.367269138840588E-4      0.0014771711253991414    0.005608                 -348.78884148085956
5.734538277681175E-4      0.0014943422507982828    0.005608                 -711.233851015214
6.101807416521762E-4      0.0015115133761974238    0.005608                 -1087.3350286030627
5.0E-4                    0.0015                   0.005608                 0
5.367269138840587E-4      0.0015171711253991415    0.005608                 -364.6870934172827
5.734538277681175E-4      0.0015343422507982827    0.005608                 -743.0303548880603
5.0E-4                    0.0015400000000000001    0.005608                 0
5.367269138840587E-4      0.0015571711253991411    0.005608                 -380.5853453537058
5.0E-4                    0.0015800000000000002    0.005608                 0
5.314098748438052E-4      0.0013159014256011869    0.005608                 -83.36648401671027
5.68136788727864E-4       0.001333072551000328     0.005608                 -373.43301717931416
5.628197496876104E-4      0.0012918028512023734    0.005608                 -149.8026846327292
5.99546663571669E-4       0.0013089739766015147    0.005608                 -426.3483367480707
5.942296245314156E-4      0.0012677042768035602    0.005608                 -195.97544885776546
6.309565384154743E-4      0.0012848754022027013    0.005608                 -458.57608499821055
6.256394993752207E-4      0.0012436057024047468    0.005608                 -221.8847766918202
6.623664132592796E-4      0.0012607768278038883    0.005608000000000001     -470.116261929733
6.570493742190259E-4      0.0012195071280059336    0.005608                 -227.53066813489278
6.937762881030847E-4      0.0012366782534050749    0.005608                 -460.96886754263824
6.884592490628312E-4      0.0011954085536071204    0.005608                 -212.91312318698317
7.2518616294689E-4        0.0012125796790062615    0.005608                 -424.3175996811788
7.198691239066364E-4      0.001171309979208307     0.005608                 -132.50191818412893
6.048637026119226E-4      0.001350243676399469     0.005608                 -683.1379928660813
6.362735774557279E-4      0.0013261451020006561    0.005608                 -728.5423486746181
6.676834522995331E-4      0.0013020465276018427    0.005608                 -753.2591331645376
6.990933271433383E-4      0.0012779479532030295    0.005608                 -757.2883463358407
7.305032019871435E-4      0.001253849378804216     0.005608                 -737.4730725093176
6.415906164959815E-4      0.0013674148017986105    0.005608                 -1003.5624757273139
6.730004913397866E-4      0.0013433162273997973    0.005608                 -1041.4558677756306
7.044103661835918E-4      0.0013192176530009841    0.005608                 -1058.6616885053304
7.358202410273969E-4      0.0012951190786021707    0.005608                 -1055.7147300790914
6.783175303800401E-4      0.001384585927197752     0.005608                 -1334.7064657630115
7.097274052238454E-4      0.0013604873527989386    0.005608                 -1365.0888940511086
7.411372800676505E-4      0.0013363887784001252    0.005608                 -1379.0425723905003
7.150444442640989E-4      0.001401757052596893     0.005608                 -1676.5699629731744
7.464543191079041E-4      0.0013776584781980798    0.005608                 -1707.4565994435438
7.517713581481577E-4      0.0014189281779960342    0.005608                 -2040.9568112382226
9.269013687115286E-4      0.001246892249194125     0.005608                 -1196.675232394893
9.026423727796547E-4      0.0012773644818512486    0.005608                 -1468.310388508092
8.973253337394012E-4      0.001236094782053294     0.005608                 -1052.2187055443353
8.730663378075273E-4      0.0012665670147104175    0.005608                 -1293.3480702541071
8.783833768477808E-4      0.001307836714508372     0.005608                 -1683.4950354440023
8.488073418756533E-4      0.0012970392473675408    0.005608                 -1481.588483537661
8.541243809159068E-4      0.0013383089471654952    0.005608                 -1880.8543087782327
8.245483459437794E-4      0.001327511480024664     0.005608                 -1651.6499486658915
8.298653849840329E-4      0.0013687811798226185    0.005608                 -2060.3882085107844
8.002893500119056E-4      0.0013579837126817876    0.005608000000000001     -1803.5324656387988
8.05606389052159E-4       0.001399253412479742     0.005608                 -2222.0967346416564
7.760303540800315E-4      0.001388455945338911     0.005608                 -1937.2360344563822
7.813473931202852E-4      0.0014297256451368653    0.005608                 -2365.97988717085
8.677492987672736E-4      0.0012252973149124628    0.005608                 -881.9876054690611
8.434903028353997E-4      0.0012557695475695861    0.005608                 -1105.5620735953762
8.192313069035259E-4      0.0012862417802267097    0.005608                 -1285.307920276026
7.94972310971652E-4       0.001316714012883833     0.005608                 -1446.8748188013524
7.70713315039778E-4       0.0013471862455409563    0.005608                 -1590.262769171356
8.381732637951461E-4      0.0012144998477716315    0.005608                 -718.39416680109
8.139142678632724E-4      0.001244972080428755     0.005608                 -924.0843979931433
7.896552719313984E-4      0.0012754443130858785    0.005608                 -1095.3356780708891
7.653962759995245E-4      0.0013059165457430019    0.005608                 -1248.4080099933121
8.085972288230188E-4      0.0012037023806308004    0.005608                 -561.4383895404226
7.843382328911448E-4      0.001234174613287924     0.005608                 -748.9150434474075
7.600792369592709E-4      0.0012646468459450474    0.005608                 -911.6717569222501
7.790211938508913E-4      0.0011929049134899693    0.005608                 -411.12027368705856
7.547621979190173E-4      0.0012233771461470926    0.005608                 -580.0540099581701
7.494451588787639E-4      0.0011821074463491382    0.005608                 -267.43981924099876
9.288312131386119E-4      0.0012174281355566265    0.005608                 -809.9181714189446
8.992551781664844E-4      0.0012066306684157954    0.005608                 -651.8240641759479
8.696791431943569E-4      0.001195833201274964     0.005608                 -499.6020539737013
8.401031082222295E-4      0.001185035734134133     0.005608                 -354.34704552956407
8.105270732501021E-4      0.001174238266993302     0.005608000000000001     -216.0590388435362
7.809510382779745E-4      0.0011634407998524707    0.005608                 -84.738033915618
7.513750033058471E-4      0.0011526433327116396    0.005608                 67.0173296598128
9.307610575656952E-4      0.0011879640219191279    0.005608                 -434.02074624235615
9.011850225935676E-4      0.0011771665547782965    0.005608                 -284.9419452877503
8.716089876214402E-4      0.0011663690876374654    0.005608                 -141.6686949779791
8.420329526493129E-4      0.0011555716204966345    0.005608                 -5.362446426317547
8.124569176771854E-4      0.0011447741533558032    0.005608                 123.97680036723511
7.828808827050578E-4      0.001133976686214972     0.005608                 268.7630669162255
9.326909019927783E-4      0.001158499908281629     0.005608                 -57.008002141986964
9.031148670206509E-4      0.001147702441140798     0.005608                 83.13765439115164
8.735388320485235E-4      0.001136904973999967     0.005608                 217.4621448084473
8.439627970763961E-4      0.0011261075068591357    0.005608                 344.8196334676336
8.143867621042685E-4      0.0011153100397183046    0.005608                 482.39787812593283
9.346207464198616E-4      0.0011290357946441305    0.005608                 321.12006088216333
9.050447114477343E-4      0.0011182383275032996    0.005608                 452.4147348607579
8.754686764756068E-4      0.0011074408603624682    0.005608                 577.790465385578
8.458926415034792E-4      0.0010966433932216371    0.005608                 707.921763288934
9.36550590846945E-4       0.0010995716810066319    0.005608                 700.3634428300949
9.069745558748175E-4      0.0010887742138658008    0.005608                 822.8892961210685
8.773985209026901E-4      0.0010779767467249696    0.005608                 945.3347224052296
9.384804352740282E-4      0.0010701075673691333    0.005608                 1080.7221437018072
9.089044003019008E-4      0.0010593101002283022    0.005608                 1194.636755474819
9.404102797011116E-4      0.0010406434537316347    0.005608                 1493.827688894272
7.394618047679213E-4      0.0017148105487449518    0.005608                 -3457.568557999566
7.464759151145531E-4      0.00167790561203184      0.005608                 -3388.4616448722722
7.534900254611849E-4      0.0016410006753187283    0.005608                 -3283.5395908688806
7.605041358078168E-4      0.0016040957386056168    0.005608                 -3174.5323109959727
7.675182461544486E-4      0.0015671908018925053    0.005608000000000001     -3061.4398052535453
7.745323565010804E-4      0.0015302858651793936    0.005608                 -2944.262073641603
7.815464668477122E-4      0.0014933809284662818    0.005608                 -2794.089921516538
7.709339847738542E-4      0.0017110886627041333    0.005608                 -3855.306712977711
7.77948095120486E-4       0.0016741837259910213    0.005608                 -3761.324987803402
7.849622054671179E-4      0.0016372787892779098    0.005608                 -3646.3773756647834
7.919763158137497E-4      0.0016003738525647983    0.005608                 -3527.344537656648
7.989904261603816E-4      0.0015634689158516867    0.005608                 -3404.2264737789965
8.060045365070134E-4      0.001526563979138575     0.005608                 -3265.534815194834
8.024061647797871E-4      0.0017073667766633145    0.005608                 -4244.953253235086
8.09420275126419E-4       0.001670461839950203     0.005608                 -4126.467199632441
8.164343854730508E-4      0.0016335569032370914    0.005608                 -4001.494029358598
8.234484958196827E-4      0.0015966519665239797    0.005608                 -3872.4356332152365
8.304626061663144E-4      0.001559747029810868     0.005608                 -3745.1093362628935
8.338783447857201E-4      0.0017036448906224961    0.005608                 -4626.508178771693
8.408924551323519E-4      0.0016667399539093846    0.005608                 -4483.888280359392
8.479065654789837E-4      0.0016298350171962727    0.005608                 -4348.889551950321
8.549206758256154E-4      0.0015929300804831611    0.005608                 -4232.813484720718
8.653505247916529E-4      0.0016999230045816774    0.005608                 -4999.971489587528
8.723646351382848E-4      0.0016630180678685656    0.005608                 -4833.588229984252
8.793787454849166E-4      0.0016261131311554541    0.005608                 -4728.647260568308
8.968227047975859E-4      0.001696201118540859     0.005608                 -5365.343185682592
9.038368151442176E-4      0.001659296181827747     0.005608                 -5232.6106638056635
9.282948848035188E-4      0.0016924792325000403    0.005608                 -5776.906567028905
7.190931477551738E-4      0.0017444563726735176    0.005608                 -3208.4323281624743
6.893803442177468E-4      0.0017703803105612646    0.005608                 -2811.2095165455275
7.301966707483591E-4      0.0017703803105612649    0.005608000000000001     -3407.0880246337856
7.004838672109322E-4      0.0017963042484490117    0.005608                 -3008.2837868856313
7.413001937415444E-4      0.0017963042484490117    0.005608                 -3606.430955115191
7.115873902041176E-4      0.001822228186336759     0.005608000000000001     -3205.7579386438183
7.524037167347297E-4      0.001822228186336759     0.005608000000000001     -3806.4611196066903
7.226909131973029E-4      0.0018481521242245062    0.005608000000000001     -3403.631971820089
7.635072397279151E-4      0.0018481521242245062    0.005608000000000001     -4007.1785181082837
7.337944361904882E-4      0.0018740760621122532    0.005608000000000001     -3601.9058864144417
7.746107627211005E-4      0.0018740760621122534    0.005608000000000002     -4208.58315061997
7.448979591836736E-4      0.0019000000000000002    0.005608000000000001     -3800.57968242688
7.857142857142859E-4      0.0019000000000000004    0.005608000000000002     -4432.440647233241
6.596675406803198E-4      0.0017963042484490117    0.005608                 -2402.951255096311
6.707710636735053E-4      0.001822228186336759     0.005608                 -2600.8966951326483
6.818745866666907E-4      0.0018481521242245062    0.005608000000000001     -2799.242016587069
6.929781096598759E-4      0.001874076062112253     0.005608000000000001     -2997.9872194595737
7.040816326530613E-4      0.0019000000000000002    0.005608000000000001     -3197.132303750161
6.29954737142893E-4       0.0018222281863367587    0.005608                 -1987.1670305170521
6.410582601360784E-4      0.001848152124224506     0.005608000000000002     -2185.9836402496226
6.521617831292638E-4      0.0018740760621122532    0.005608000000000001     -2385.200131400278
6.63265306122449E-4       0.0019000000000000002    0.005608000000000001     -2584.816503969018
6.002419336054661E-4      0.001848152124224506     0.005608000000000001     -1563.8568428077504
6.113454565986514E-4      0.001874076062112253     0.005608                 -1763.5446222365565
6.224489795918367E-4      0.0019                   0.005608                 -1963.632283083446
5.705291300680391E-4      0.001874076062112253     0.005608                 -1133.0206919684083
5.816326530612246E-4      0.0019000000000000002    0.005608000000000001     -1333.5796410934481
5.408163265306122E-4      0.0019                   0.005608                 -694.6585779990232
7.505653277611066E-4      0.001740734486632699     0.005608                 -3625.8608156926484
7.820375077670395E-4      0.0017370126005918803    0.005608                 -4038.336691585601
8.135096877729725E-4      0.001733290714551062     0.005608                 -4442.350469139103
8.449818677789054E-4      0.0017295688285102434    0.005608000000000001     -4837.902148353152
8.764540477848382E-4      0.0017258469424694246    0.005608                 -5224.991729227753
9.079262277907711E-4      0.001722125056428606     0.005608                 -5596.759074931024
7.61668850754292E-4       0.001766658424520446     0.005608000000000001     -3826.8575749944175
7.931410307602249E-4      0.0017629365384796277    0.005608000000000001     -4239.221917890384
8.246132107661579E-4      0.001759214652438809     0.005608000000000001     -4643.124162446902
8.560853907720907E-4      0.0017554927663979906    0.005608000000000001     -5038.564308663969
8.875575707780237E-4      0.0017517708803571719    0.005608000000000001     -5424.154627028723
7.727723737474773E-4      0.0017925823624081933    0.005608                 -4028.828920898291
8.042445537534103E-4      0.0017888604763673748    0.005608000000000001     -4441.081730797275
8.357167337593432E-4      0.0017851385903265562    0.005608000000000001     -4844.872442356809
8.67188913765276E-4       0.0017814167042857374    0.005608                 -5244.213463348626
7.838758967406627E-4      0.0018185063002959406    0.005608000000000002     -4231.774853404269
8.153480767465957E-4      0.0018147844142551218    0.005608000000000002     -4643.91613030627
8.468202567525285E-4      0.0018110625282143032    0.005608000000000001     -5056.935583890731
7.949794197338481E-4      0.0018444302381836876    0.005608000000000001     -4435.695372512354
8.26451599739781E-4       0.001840708352142869     0.005608000000000001     -4862.320988655043
8.060829427270333E-4      0.0018703541760714346    0.005608000000000001     -4660.369677641558
9.487425543213835E-4      0.0017221250564286058    0.005608                 -6071.614792619717
9.28373897308636E-4       0.0017517708803571716    0.005608                 -5919.072584534097
9.691902238392481E-4      0.0017517708803571714    0.005608                 -6397.96867528104
9.488215668265005E-4      0.0017814167042857372    0.005608                 -6245.283795736179
9.896378933571127E-4      0.001781416704285737     0.005608                 -6721.0440172705585
9.692692363443651E-4      0.0018110625282143028    0.005608                 -6568.532571705393
0.0010100855628749775     0.0018110625282143028    0.005608                 -7040.840818588273
9.8971690586223E-4        0.0018407083521428688    0.005608000000000001     -6888.8189124417395
0.001030533232392842      0.0018407083521428686    0.005608                 -7357.359079234184
0.0010101645753800945     0.0018703541760714344    0.005608                 -7206.142817945218
0.0010509809019107067     0.001870354176071434     0.005608                 -7670.598799208289
0.001030612244897959      0.0018999999999999998    0.005608                 -7520.504288215829
0.0010714285714285715     0.0018999999999999998    0.005608                 -8002.155761916206
9.080052402958883E-4      0.0017814167042857374    0.005608000000000001     -5757.134901032018
9.284529098137531E-4      0.001811062528214303     0.005608000000000001     -6088.540469315309
9.489005793316176E-4      0.0018407083521428686    0.005608000000000001     -6416.98360236573
9.693482488494823E-4      0.0018703541760714342    0.005608000000000001     -6742.464300183285
9.89795918367347E-4       0.0019000000000000002    0.005608000000000001     -7064.982562767973
8.876365832831408E-4      0.001811062528214303     0.005608                 -5587.788231717725
9.080842528010056E-4      0.0018407083521428688    0.005608000000000001     -5924.388157082224
9.285319223188702E-4      0.0018703541760714344    0.005608000000000001     -6258.025647213855
9.489795918367348E-4      0.0019                   0.005608                 -6588.700702112619
8.672679262703932E-4      0.001840708352142869     0.005608000000000002     -5411.032576591219
8.877155957882579E-4      0.0018703541760714346    0.005608000000000002     -5752.826859036926
9.081632653061225E-4      0.0019000000000000002    0.005608000000000001     -6091.658706249766
8.468992692576456E-4      0.0018703541760714346    0.005608000000000001     -5226.867935652501
8.673469387755103E-4      0.0019000000000000002    0.005608000000000001     -5573.856575179418
8.26530612244898E-4       0.0019000000000000002    0.005608000000000001     -5035.294308901568
0.0010893966909105218     0.0018666305778566009    0.005608                 -8044.810859180056
0.0010689490213926572     0.0018369847539280353    0.005608                 -7722.720389334754
0.0010485013518747924     0.0018073389299994695    0.005608                 -7411.2033000063
0.0010280536823569278     0.001777693106070904     0.005608                 -7096.091564567105
0.0010076060128390632     0.0017480472821423385    0.005608000000000001     -6777.385183017164
9.871583433211984E-4      0.0017184014582137725    0.005608                 -6455.084155356487
9.667106738033338E-4      0.001688755634285207     0.005608                 -6192.880501915099
0.0011073648103924723     0.0018332611557132018    0.005608                 -8056.72710968212
0.0010869171408746075     0.001803615331784636     0.005608                 -7745.895111965751
0.001066469471356743      0.0017739695078560704    0.005608                 -7440.17326006765
0.0010460218018388783     0.001744323683927505     0.005608                 -7130.8567620588055
0.0010255741323210135     0.0017146778599989392    0.005608                 -6817.945617939218
0.001005126462803149      0.0016850320360703734    0.005608                 -6540.913878896024
0.0011253329298744226     0.0017998917335698026    0.005608                 -8061.349455152407
0.001104885260356558      0.001770245909641237     0.005608                 -7761.66056580992
0.0010844375908386935     0.0017406000857126717    0.005608                 -7461.73395134217
0.0010639899213208287     0.0017109542617841059    0.005608                 -7158.2126907636775
0.001043542251802964      0.00168130843785554      0.005608                 -6868.089330541171
0.0011433010493563732     0.0017665223114264037    0.005608                 -8058.677895590921
0.0011228533798385083     0.0017368764874978381    0.005608                 -7770.016750867255
0.0011024057103206438     0.0017072306635692726    0.005608                 -7475.8853738298585
0.0010819580408027792     0.0016775848396407065    0.005608                 -7174.406856850546
0.0011612691688383235     0.0017331528892830048    0.005608                 -8048.712430997659
0.0011408214993204589     0.001703507065354439     0.005608                 -7770.963667137759
0.001120373829802594      0.0016738612414258734    0.005608                 -7459.866457824142
0.001179237288320274      0.0016997834671396057    0.005608                 -8031.453061372624
0.0011587896188024092     0.00167013764321104      0.005608                 -7724.468133461967
0.0011972054078022243     0.0016664140449962066    0.005608                 -7986.024228052004
0.0012200536148508862     0.0016997834671396057    0.005608                 -8292.679778010814
0.0012020854953689358     0.0017331528892830046    0.005608                 -8337.05388700921
0.001242901821899548      0.0017331528892830046    0.005608                 -8600.026330374445
0.0012249337024175977     0.0017665223114264033    0.005608                 -8648.653994671495