% Model:              stripline_filter_simple_decomp_new_mesh.mph
% Version:            COMSOL 6.1.0.252
% Date:               May 4 2023, 12:09
% Dimension:          3
% Nodes:              2339
% Expressions:        1
% Description:        Surface
% X                       Y                        Z                        real(emw.Ex)
7.079896247619854E-4      0.0017185324347857738    0.010508                 35.314293192851025
6.782768212245591E-4      0.0017444563726735204    0.010508                 40.85522357727591
6.782768212245591E-4      0.0017044563726735205    0.010508                 23.66205410028661
6.485640176871325E-4      0.001730380310561267     0.010508                 42.2622009088812
6.485640176871324E-4      0.001770380310561267     0.010508                 45.708200840898485
6.188512141497059E-4      0.0017563042484490135    0.010508                 45.158242377393435
6.188512141497059E-4      0.0017963042484490134    0.010508                 44.41101164653537
5.891384106122795E-4      0.0017822281863367603    0.010508                 42.37077438751783
5.891384106122795E-4      0.0018222281863367602    0.010508                 36.96365599418641
5.594256070748531E-4      0.0018081521242245067    0.010508                 33.89979693925477
5.59425607074853E-4       0.0018481521242245066    0.010508                 23.36613388385149
5.297128035374265E-4      0.0018340760621122533    0.010508                 19.74531003260421
5.297128035374265E-4      0.0018740760621122534    0.010508                 3.61844531553092
5.0E-4                    0.0018599999999999999    0.010508                 -0.09268633243453905
5.0E-4                    0.0019                   0.010508                 -22.279409710775194
6.485640176871324E-4      0.001690380310561267     0.010508                 27.83414547484228
6.188512141497059E-4      0.0017163042484490134    0.010508                 49.46849377641598
5.891384106122794E-4      0.0017422281863367602    0.010508                 54.25757122082621
5.59425607074853E-4       0.0017681521242245068    0.010508                 53.36313920684904
5.297128035374265E-4      0.0017940760621122534    0.010508                 46.78519773448437
5.0E-4                    0.00182                  0.010508                 34.52374680373174
6.188512141497059E-4      0.0016763042484490135    0.010508                 31.547178897518563
5.891384106122795E-4      0.0017022281863367603    0.010508                 56.294668101184584
5.59425607074853E-4       0.001728152124224507     0.010508                 62.97678152149399
5.297128035374265E-4      0.0017540760621122535    0.010508                 63.975385483414755
5.0E-4                    0.00178                  0.010508                 59.290479986948924
5.891384106122795E-4      0.0016622281863367602    0.010508                 34.801154368315224
5.59425607074853E-4       0.001688152124224507     0.010508                 62.74072388318845
5.297128035374265E-4      0.0017140760621122534    0.010508                 71.31587327939576
5.0E-4                    0.00174                  0.010508                 74.20751321721502
5.59425607074853E-4       0.001648152124224507     0.010508                 37.596071887232206
5.297128035374264E-4      0.0016740760621122533    0.010508                 68.80666112242656
5.0E-4                    0.0017000000000000001    0.010508                 79.27484649453208
5.297128035374265E-4      0.0016340760621122536    0.010508                 39.931931454269574
5.0E-4                    0.00166                  0.010508                 74.4924798188996
5.0E-4                    0.0016200000000000001    0.010508                 20.00126048070024
5.0E-4                    0.00134                  0.010508                 41.71465829655765
5.367269138840589E-4      0.0013571711253991417    0.010508                 79.80350408966126
5.0E-4                    0.0013800000000000002    0.010508                 155.0787619755667
5.367269138840589E-4      0.0013971711253991416    0.010508                 151.651427183488
5.734538277681177E-4      0.001374342250798283     0.010508                 86.9505664388099
5.734538277681177E-4      0.001414342250798283     0.010508                 143.01041212321826
6.101807416521766E-4      0.0013915133761974244    0.010508                 89.23431034856816
6.101807416521766E-4      0.0014315133761974247    0.010508                 129.1557167947568
6.469076555362355E-4      0.001408684501596566     0.010508                 86.65473581893667
6.469076555362355E-4      0.0014486845015965661    0.010508                 110.0873411981045
6.836345694202944E-4      0.0014258556269957077    0.010508                 79.21184284991442
6.836345694202944E-4      0.0014658556269957076    0.010508                 85.80528533326076
7.203614833043532E-4      0.0014430267523948491    0.010508                 66.90563144150283
7.203614833043532E-4      0.001483026752394849     0.010508                 73.8531916700548
7.570883971884121E-4      0.0014601978777939906    0.010508                 35.59534032846033
5.0E-4                    0.00142                  0.010508                 195.8659912719944
5.367269138840588E-4      0.0014371711253991415    0.010508                 180.30727130873703
5.734538277681177E-4      0.0014543422507982831    0.010508                 159.53487107728827
6.101807416521766E-4      0.0014715133761974246    0.010508                 133.5487905776482
6.469076555362354E-4      0.001488684501596566     0.010508                 102.3490298098171
6.836345694202944E-4      0.0015058556269957077    0.010508                 85.58590915802263
5.0E-4                    0.00146                  0.010508                 208.4254990716965
5.367269138840589E-4      0.0014771711253991416    0.010508                 180.73539393726026
5.734538277681177E-4      0.0014943422507982832    0.010508                 147.83160853463272
6.101807416521766E-4      0.0015115133761974247    0.010508                 109.71414286381383
6.469076555362355E-4      0.0015286845015965661    0.010508                 87.70677248119257
5.0E-4                    0.0015                   0.010508                 192.7572853746725
5.367269138840589E-4      0.0015171711253991417    0.010508                 152.93579506905775
5.734538277681177E-4      0.0015343422507982831    0.010508                 107.90062449525124
6.101807416521766E-4      0.0015515133761974246    0.010508                 80.21578163956433
5.0E-4                    0.0015400000000000001    0.010508                 148.8613501809229
5.367269138840589E-4      0.0015571711253991416    0.010508                 96.90847470412902
5.734538277681177E-4      0.001574342250798283     0.010508                 63.11293663313805
5.0E-4                    0.0015800000000000002    0.010508                 76.7376934904475
5.367269138840589E-4      0.0015971711253991417    0.010508                 36.3982374619141
7.150037351086179E-4      0.001681627498072662     0.010508                 83.5509628217167
6.852909315711914E-4      0.0016675514359604086    0.010508                 70.72395568523507
6.555781280337648E-4      0.001653475373848155     0.010508                 69.68376768644634
6.258653244963384E-4      0.001639399311735902     0.010508                 68.10558232666335
5.961525209589119E-4      0.0016253232496236487    0.010508                 65.9893996058878
5.664397174214854E-4      0.001611247187511395     0.010508                 63.33521952411763
7.220178454552501E-4      0.00164472256135955      0.010508                 116.5944051878752
6.923050419178236E-4      0.0016306464992472964    0.010508                 110.15714589330742
6.625922383803972E-4      0.0016165704371350431    0.010508                 105.04584403825424
6.328794348429707E-4      0.0016024943750227898    0.010508                 99.3965448222076
6.031666313055442E-4      0.0015884183129105365    0.010508                 93.20924824516715
7.290319558018825E-4      0.001607817624646438     0.010508                 132.3542203240517
6.993191522644561E-4      0.0015937415625341847    0.010508                 131.94102884280892
6.696063487270296E-4      0.0015796655004219314    0.010508                 122.75861313149153
6.398935451896031E-4      0.001565589438309678     0.010508                 113.03820005917999
7.36046066148515E-4       0.0015709126879333262    0.010508                 130.83040823024538
7.063332626110884E-4      0.001556836625821073     0.010508                 136.07560453373821
6.76620459073662E-4       0.0015427605637088194    0.010508                 122.82207496615649
7.430601764951473E-4      0.0015340077512202145    0.010508                 112.02296890645758
7.133473729577208E-4      0.001519931689107961     0.010508                 122.56087296609667
7.500742868417797E-4      0.0014971028145071025    0.010508                 75.93190235268861
6.793163370071147E-4      6.826832951914435E-4     0.010508                 34.95539295139472
6.536997174346698E-4      6.965856815926658E-4     0.010508                 30.028511798489674
6.536997174346698E-4      6.565856815926659E-4     0.010508                 29.34144545739325
6.280830978622248E-4      6.704880679938882E-4     0.010508                 41.03626089954329
6.280830978622248E-4      7.104880679938881E-4     0.010508                 35.86366181758957
6.024664782897798E-4      6.843904543951105E-4     0.010508                 49.87904280188263
6.024664782897798E-4      7.243904543951104E-4     0.010508                 40.18407437024305
5.768498587173349E-4      6.982928407963328E-4     0.010508                 57.20552781840922
5.768498587173348E-4      7.382928407963328E-4     0.010508                 42.989749456449985
5.5123323914489E-4        7.121952271975553E-4     0.010508                 63.015715949123205
5.512332391448899E-4      7.521952271975552E-4     0.010508                 44.28068707621041
5.256166195724449E-4      7.260976135987776E-4     0.010508                 67.30960719402435
5.25616619572445E-4       7.660976135987776E-4     0.010508                 44.05688722952438
5.0E-4                    7.399999999999999E-4     0.010508                 70.08720155311303
5.0E-4                    7.799999999999999E-4     0.010508                 34.22158250512729
6.280830978622248E-4      6.304880679938882E-4     0.010508                 32.22663275265825
6.024664782897798E-4      6.443904543951105E-4     0.010508                 43.99532314681021
5.768498587173348E-4      6.582928407963328E-4     0.010508                 55.34522343473998
5.512332391448899E-4      6.721952271975553E-4     0.010508                 65.17882683685696
5.256166195724449E-4      6.860976135987776E-4     0.010508                 73.4961333531611
5.0E-4                    6.999999999999999E-4     0.010508                 80.29714298365275
6.024664782897798E-4      6.043904543951105E-4     0.010508                 31.07987296970765
5.768498587173348E-4      6.182928407963328E-4     0.010508                 42.88491078274727
5.5123323914489E-4        6.321952271975553E-4     0.010508                 56.741929456267286
5.25616619572445E-4       6.460976135987776E-4     0.010508                 69.08265124397468
5.0E-4                    6.599999999999999E-4     0.010508                 79.90707614586921
5.768498587173348E-4      5.78292840796333E-4      0.010508                 25.901166108541872
5.5123323914489E-4        5.921952271975553E-4     0.010508                 37.70502380735429
5.25616619572445E-4       6.060976135987776E-4     0.010508                 54.06916086646464
5.0E-4                    6.199999999999999E-4     0.010508                 68.91700103976228
5.512332391448899E-4      5.521952271975553E-4     0.010508                 16.690512169160538
5.256166195724449E-4      5.660976135987776E-4     0.010508                 28.45566222063161
5.0E-4                    5.8E-4                   0.010508                 47.32691766533213
5.25616619572445E-4       5.260976135987777E-4     0.010508                 3.4479111515634466
5.0E-4                    5.399999999999999E-4     0.010508                 15.13682602257856
5.0E-4                    5.0E-4                   0.010508                 -13.826636944249111
7.013916871117124E-4      9.161043535964268E-4     0.010508                 49.11269374629205
6.726214460957535E-4      9.366608745112231E-4     0.010508                 59.75156258471927
6.726214460957535E-4      8.966608745112231E-4     0.010508                 74.89778977891811
6.438512050797946E-4      9.172173954260191E-4     0.010508                 87.90389882724548
6.438512050797945E-4      9.572173954260192E-4     0.010508                 75.9522998305122
6.150809640638357E-4      9.377739163408151E-4     0.010508                 106.81800760413427
6.150809640638355E-4      9.777739163408152E-4     0.010508                 84.67660930552546
5.863107230478768E-4      9.583304372556114E-4     0.010508                 118.45526525817584
5.863107230478767E-4      9.983304372556115E-4     0.010508                 85.92449100975901
5.575404820319179E-4      9.788869581704076E-4     0.010508                 122.81567178937016
5.575404820319178E-4      0.0010188869581704077    0.010508                 79.6959449432128
5.287702410159588E-4      9.994434790852038E-4     0.010508                 119.89922719771721
5.28770241015959E-4       0.0010394434790852037    0.010508                 65.99097110588689
5.0E-4                    0.0010199999999999999    0.010508                 109.70593148321711
5.0E-4                    0.00106                  0.010508                 55.7303231076827
6.438512050797945E-4      8.772173954260191E-4     0.010508                 82.11101058885734
6.150809640638355E-4      8.977739163408152E-4     0.010508                 102.64400126216191
5.863107230478767E-4      9.183304372556115E-4     0.010508                 128.24243798811727
5.575404820319179E-4      9.388869581704076E-4     0.010508                 146.5640235912255
5.287702410159588E-4      9.594434790852038E-4     0.010508                 157.60875807148642
5.0E-4                    9.8E-4                   0.010508                 161.37664142890011
6.150809640638355E-4      8.577739163408151E-4     0.010508                 83.2253402782639
5.863107230478767E-4      8.783304372556114E-4     0.010508                 111.24946781974428
5.575404820319179E-4      8.988869581704076E-4     0.010508                 143.5322324947663
5.28770241015959E-4       9.194434790852038E-4     0.010508                 168.5381460469411
5.0E-4                    9.399999999999999E-4     0.010508                 186.26720847626868
5.863107230478767E-4      8.383304372556115E-4     0.010508                 78.2407788471381
5.575404820319179E-4      8.588869581704076E-4     0.010508                 113.72029849999268
5.28770241015959E-4       8.794434790852037E-4     0.010508                 152.68739112408127
5.0E-4                    8.999999999999999E-4     0.010508                 184.3776326253227
5.575404820319178E-4      8.188869581704076E-4     0.010508                 67.15732629547983
5.287702410159588E-4      8.394434790852037E-4     0.010508                 110.05649330290706
5.0E-4                    8.599999999999999E-4     0.010508                 155.70791387606226
5.28770241015959E-4       7.994434790852037E-4     0.010508                 49.974982623289236
5.0E-4                    8.199999999999999E-4     0.010508                 100.25805222848743
6.824699584506287E-4      7.160291606778696E-4     0.010508                 81.80718568639146
6.568533388781838E-4      7.29931547079092E-4      0.010508                 71.45782646777786
6.856235798941426E-4      7.493750261642958E-4     0.010508                 109.91734031458374
6.600069603216977E-4      7.632774125655181E-4     0.010508                 102.83849868644452
6.887772013376565E-4      7.82720891650722E-4      0.010508                 124.28731677907905
6.631605817652116E-4      7.966232780519443E-4     0.010508                 120.19131621203263
6.919308227811706E-4      8.160667571371482E-4     0.010508                 124.91711507987716
6.663142032087257E-4      8.299691435383705E-4     0.010508                 123.5162790445423
6.950844442246845E-4      8.494126226235744E-4     0.010508                 111.80673521697807
6.694678246522395E-4      8.633150090247967E-4     0.010508                 112.81338718397382
6.982380656681984E-4      8.827584881100006E-4     0.010508                 84.95617719038191
6.312367193057386E-4      7.438339334803143E-4     0.010508                 72.05351980101489
6.343903407492527E-4      7.771797989667406E-4     0.010508                 98.69524883146752
6.375439621927666E-4      8.105256644531667E-4     0.010508                 111.30912316884181
6.406975836362805E-4      8.438715299395929E-4     0.010508                 109.89514281313781
6.056200997332937E-4      7.577363198815366E-4     0.010508                 71.13603508717142
6.087737211768078E-4      7.91082185367963E-4      0.010508                 93.03882092941022
6.119273426203216E-4      8.244280508543892E-4     0.010508                 100.91375207857078
5.800034801608488E-4      7.716387062827591E-4     0.010508                 68.70537232624781
5.831571016043628E-4      8.049845717691852E-4     0.010508                 85.86921498027296
5.543868605884038E-4      7.855410926839813E-4     0.010508                 64.76153151824417
7.198691239066398E-4      0.0011713099792083107    0.010508                 60.62297629132875
6.884592490628341E-4      0.0011954085536071235    0.010508                 70.9716423500773
6.884592490628341E-4      0.0011554085536071236    0.010508                 89.43644525676241
6.570493742190285E-4      0.0011795071280059361    0.010508                 109.03754755183328
6.570493742190284E-4      0.0012195071280059362    0.010508                 94.37455728675027
6.256394993752227E-4      0.001203605702404749     0.010508                 132.56083995061852
6.256394993752227E-4      0.001243605702404749     0.010508                 104.98753554899082
5.942296245314171E-4      0.0012277042768035619    0.010508                 143.74561356666402
5.94229624531417E-4       0.0012677042768035618    0.010508                 102.81057713679922
5.628197496876115E-4      0.0012518028512023746    0.010508                 142.59186839996977
5.628197496876114E-4      0.0012918028512023745    0.010508                 87.84368205017509
5.314098748438056E-4      0.0012759014256011872    0.010508                 129.0996044505361
5.314098748438057E-4      0.0013159014256011873    0.010508                 60.08685028911862
5.0E-4                    0.0013                   0.010508                 103.26882171836263
6.570493742190284E-4      0.0011395071280059363    0.010508                 98.787765365008
6.256394993752227E-4      0.001163605702404749     0.010508                 130.97800181865932
5.94229624531417E-4       0.0011877042768035618    0.010508                 162.55812080189875
5.628197496876114E-4      0.0012118028512023745    0.010508                 181.79972100239848
5.314098748438056E-4      0.0012359014256011873    0.010508                 188.70280242015855
5.0E-4                    0.00126                  0.010508                 183.26736505517908
6.256394993752227E-4      0.001123605702404749     0.010508                 102.96732410229882
5.94229624531417E-4       0.0011477042768035617    0.010508                 147.658077943015
5.628197496876115E-4      0.0011718028512023746    0.010508                 187.29502351070877
5.314098748438057E-4      0.0011959014256011872    0.010508                 214.5934502956628
5.0E-4                    0.00122                  0.010508                 229.5533582978772
5.94229624531417E-4       0.0011077042768035618    0.010508                 101.97512146863482
5.628197496876115E-4      0.0011318028512023745    0.010508                 159.0777759249006
5.314098748438057E-4      0.0011559014256011873    0.010508                 206.77154807704852
5.0E-4                    0.00118                  0.010508                 242.12680144645697
5.628197496876114E-4      0.0010918028512023744    0.010508                 95.81115746401608
5.314098748438056E-4      0.0011159014256011872    0.010508                 165.2370957643159
5.0E-4                    0.00114                  0.010508                 220.9876945009181
5.314098748438057E-4      0.0010759014256011873    0.010508                 84.47543208844253
5.0E-4                    0.0010999999999999998    0.010508                 166.13603746126103
5.681367887278646E-4      0.0013330725510003287    0.010508                 107.59085551545769
5.995466635716702E-4      0.001308973976601516     0.010508                 137.10120984698165
6.30956538415476E-4       0.0012848754022027034    0.010508                 153.37020961237982
6.623664132592817E-4      0.0012607768278038907    0.010508                 156.39785481165308
6.937762881030873E-4      0.0012366782534050777    0.010508                 146.18414544480135
7.251861629468929E-4      0.001212579679006265     0.010508                 140.69685961117608
6.048637026119234E-4      0.0013502436763994702    0.010508                 126.278910228884
6.362735774557291E-4      0.0013261451020006574    0.010508                 163.6735646864459
6.676834522995347E-4      0.0013020465276018449    0.010508                 187.8268645778827
6.990933271433404E-4      0.001277947953203032     0.010508                 198.73880990319446
7.305032019871462E-4      0.0012538493788042191    0.010508                 191.09327874836384
6.415906164959823E-4      0.0013674148017986118    0.010508                 140.45400833172164
6.73000491339788E-4       0.001343316227399799     0.010508                 185.73296291532165
7.044103661835936E-4      0.0013192176530009863    0.010508                 217.7705629327969
7.358202410273993E-4      0.0012951190786021733    0.010508                 210.70317727788972
6.783175303800412E-4      0.0013845859271977533    0.010508                 150.1161498239701
7.097274052238468E-4      0.0013604873527989405    0.010508                 203.27940453360918
7.411372800676524E-4      0.0013363887784001278    0.010508                 199.52655519975337
7.150444442641001E-4      0.0014017570525968947    0.010508                 155.26533470562958
7.464543191079058E-4      0.0013776584781980822    0.010508                 157.56341251395446
7.517713581481588E-4      0.0014189281779960362    0.010508                 84.81374922049287
5.601801158597646E-4      0.001055344904686391     0.010508                 103.42358264709185
5.889503568757234E-4      0.0010347883837715948    0.010508                 120.2103900560513
6.177205978916823E-4      0.0010142318628567986    0.010508                 129.32119304629853
6.464908389076413E-4      9.936753419420026E-4     0.010508                 130.75599161783364
6.752610799236001E-4      9.731188210272063E-4     0.010508                 124.51478577065664
7.04031320939559E-4       9.525623001124102E-4     0.010508                 128.97072768433463
5.915899907035702E-4      0.0010712463302875782    0.010508                 125.19163190860408
6.203602317195291E-4      0.0010506898093727822    0.010508                 148.23292271543798
6.491304727354881E-4      0.0010301332884579861    0.010508                 163.59820910355967
6.77900713751447E-4       0.0010095767675431897    0.010508                 171.2874910729692
7.066709547674059E-4      9.890202466283937E-4     0.010508                 180.16197693312276
6.229998655473759E-4      0.0010871477558887655    0.010508                 141.87653657067708
6.517701065633348E-4      0.0010665912349739695    0.010508                 171.17231077538537
6.805403475792938E-4      0.0010460347140591733    0.010508                 192.79208056138148
7.093105885952526E-4      0.001025478193144377     0.010508                 206.13181825850683
6.544097403911816E-4      0.0011030491814899529    0.010508                 153.47829663331075
6.831799814071406E-4      0.0010824926605751566    0.010508                 189.02855423589347
7.119502224230994E-4      0.0010619361396603604    0.010508                 206.8802516604868
6.858196152349874E-4      0.00111895060709114      0.010508                 159.996912096505
7.145898562509463E-4      0.0010983940861763438    0.010508                 182.40727713906267
7.172294900787929E-4      0.0011348520326923271    0.010508                 132.7128946942345
9.269013687115273E-4      0.001246892249194126     0.010508                 69.7675830536918
9.026423727796538E-4      0.0012773644818512497    0.010508                 71.47141777042793
8.973253337394005E-4      0.0012360947820532953    0.010508                 92.11205729337334
8.730663378075269E-4      0.0012665670147104186    0.010508                 104.8831993559096
8.7838337684778E-4        0.001307836714508373     0.010508                 104.06411331801712
8.488073418756531E-4      0.001297039247367542     0.010508                 120.24973200159661
8.541243809159064E-4      0.0013383089471654965    0.010508                 119.2755621494266
8.245483459437796E-4      0.0013275114800246658    0.010508                 118.8172719352774
8.298653849840329E-4      0.00136878117982262      0.010508                 117.10576426465775
8.002893500119061E-4      0.0013579837126817891    0.010508                 100.58581915695254
8.056063890521594E-4      0.0013992534124797435    0.010508                 97.55471966370965
7.760303540800325E-4      0.0013884559453389126    0.010508                 65.55537366662134
7.813473931202857E-4      0.001429725645136867     0.010508                 60.62242834658332
8.677492987672736E-4      0.0012252973149124644    0.010508                 95.5571723475675
8.434903028354001E-4      0.0012557695475695879    0.010508                 118.41206084880764
8.192313069035266E-4      0.0012862417802267116    0.010508                 138.7110185762649
7.949723109716529E-4      0.0013167140128838351    0.010508                 142.21098359171629
7.707133150397793E-4      0.0013471862455409587    0.010508                 128.911955895162
8.381732637951468E-4      0.0012144998477716337    0.010508                 97.43630648112662
8.139142678632732E-4      0.0012449720804287572    0.010508                 130.55463543071846
7.896552719313997E-4      0.0012754443130858807    0.010508                 155.78601823994586
7.653962759995262E-4      0.0013059165457430042    0.010508                 164.21840833716806
8.085972288230201E-4      0.001203702380630803     0.010508                 97.7494596940507
7.843382328911466E-4      0.0012341746132879265    0.010508                 141.3109231016415
7.600792369592729E-4      0.00126464684594505      0.010508                 171.47473099264016
7.790211938508934E-4      0.001192904913489972     0.010508                 96.49663198633957
7.547621979190197E-4      0.0012233771461470956    0.010508                 150.68092386157878
7.494451588787665E-4      0.0011821074463491414    0.010508                 93.67782335799332
9.435925344910348E-4      0.0012730372852343302    0.010508                 56.05344132728828
9.193335385591612E-4      0.0013035095178914537    0.010508                 78.31370373013274
9.602837002705422E-4      0.0012991823212745342    0.010508                 66.23381629972778
9.360247043386687E-4      0.0013296545539316575    0.010508                 95.46170774936252
9.769748660500496E-4      0.001325327357314738     0.010508                 68.90353132199118
9.527158701181763E-4      0.0013557995899718617    0.010508                 104.41879664652345
9.936660318295573E-4      0.0013514723933549422    0.010508                 64.06258639407929
9.694070358976837E-4      0.001381944626012066     0.010508                 105.18497042161357
0.0010103571976090649     0.0013776174293951462    0.010508                 51.7109815159929
9.860982016771911E-4      0.0014080896620522697    0.010508                 97.76022907463431
0.0010270483633885723     0.0014037624654353504    0.010508                 31.848716687730985
0.0010027893674566988     0.001434234698092474     0.010508                 91.10831616498537
0.00104373952916808       0.0014299075014755545    0.010508                 41.01195899260276
8.950745426272874E-4      0.001333981750548577     0.010508                 120.58540055023548
9.117657084067951E-4      0.0013601267865887812    0.010508                 125.25381785830945
9.284568741863027E-4      0.0013862718226289852    0.010508                 121.73132004431292
9.451480399658101E-4      0.0014124168586691892    0.010508                 110.01790710824609
9.618392057453176E-4      0.0014385618947093933    0.010508                 96.1921923128817
8.70815546695414E-4       0.0013644539832057007    0.010508                 144.89359664998847
8.875067124749215E-4      0.0013905990192459047    0.010508                 137.08242724690479
9.041978782544291E-4      0.0014167440552861088    0.010508                 121.08034272175081
9.208890440339365E-4      0.0014428890913263128    0.010508                 99.96839546790417
8.465565507635405E-4      0.001394926215862824     0.010508                 151.23829202938873
8.632477165430479E-4      0.0014210712519030283    0.010508                 130.94753591514802
8.799388823225553E-4      0.001447216287943232     0.010508                 102.43692563005294
8.222975548316668E-4      0.0014253984485199478    0.010508                 139.61948668843706