% Model:              stripline_filter_simple_decomp_new_mesh.mph
% Version:            COMSOL 6.1.0.252
% Date:               May 4 2023, 12:30
% Dimension:          3
% Nodes:              2339
% Expressions:        1
% Description:        Surface
% X                       Y                        Z                        imag(emw.Ez)
7.079896247619884E-4      0.0017185324347857704    0.001608                 -82.7462632498642
7.150037351086203E-4      0.0016816274980726588    0.0016080000000000003    -112.47672403727003
7.394618047679214E-4      0.0017148105487449518    0.0016080000000000003    -87.4455847641265
7.464759151145532E-4      0.00167790561203184      0.0016080000000000003    -122.76844032471399
7.220178454552521E-4      0.0016447225613595471    0.001608                 -76.54913162488663
7.53490025461185E-4       0.0016410006753187283    0.001608                 -67.52630013007047
7.290319558018838E-4      0.0016078176246464354    0.001608                 -37.60993169978446
7.605041358078169E-4      0.0016040957386056168    0.001608                 -8.987062232856943
7.360460661485157E-4      0.0015709126879333239    0.001608                 4.340875738038271
7.675182461544487E-4      0.0015671908018925053    0.0016080000000000003    52.84927336691965
7.430601764951475E-4      0.0015340077512202121    0.001608                 49.30329068858282
7.745323565010805E-4      0.0015302858651793936    0.001608                 117.9827066692622
7.500742868417794E-4      0.0014971028145071004    0.001608                 97.27731315184548
7.815464668477123E-4      0.0014933809284662818    0.001608                 150.9802246967074
7.570883971884112E-4      0.0014601978777939889    0.001608                 94.96009011801698
7.709339847738544E-4      0.0017110886627041333    0.001608                 -86.57887919322722
7.779480951204861E-4      0.0016741837259910213    0.0016079999999999998    -115.1351783651362
7.849622054671181E-4      0.0016372787892779098    0.001608                 -59.09464205326617
7.919763158137499E-4      0.0016003738525647983    0.001608                 0.24299196117061683
7.989904261603817E-4      0.0015634689158516867    0.001608                 62.87772367817013
8.060045365070135E-4      0.001526563979138575     0.001608                 101.1786618794954
8.024061647797873E-4      0.0017073667766633145    0.001608                 -86.63996039416885
8.094202751264192E-4      0.001670461839950203     0.001608                 -108.26061448240489
8.16434385473051E-4       0.0016335569032370914    0.001608                 -51.42168205331086
8.234484958196829E-4      0.0015966519665239797    0.001608                 8.714348078347598
8.304626061663146E-4      0.001559747029810868     0.001608                 52.33452772211348
8.338783447857203E-4      0.0017036448906224961    0.001608                 -87.62882836695094
8.408924551323521E-4      0.0016667399539093846    0.001608                 -102.14474867652098
8.47906565478984E-4       0.0016298350171962727    0.001608                 -44.507420130202746
8.549206758256159E-4      0.0015929300804831611    0.001608                 4.447822224559559
8.653505247916532E-4      0.0016999230045816774    0.001608                 -89.54548311157242
8.723646351382851E-4      0.0016630180678685656    0.001608                 -96.78758094748355
8.79378745484917E-4       0.0016261131311554541    0.001608                 -42.48145461316193
8.968227047975863E-4      0.001696201118540859     0.001608                 -92.38992462803654
9.038368151442181E-4      0.001659296181827747     0.001608                 -88.45330279105414
9.282948848035193E-4      0.0016924792325000403    0.001608                 -119.41450371025
9.269013687115286E-4      0.001246892249194125     0.001608                 786.7225812958549
9.026423727796547E-4      0.0012773644818512486    0.0016080000000000003    643.1622468638903
8.973253337394013E-4      0.001236094782053294     0.0016080000000000003    749.4865770890328
8.730663378075274E-4      0.0012665670147104175    0.0016080000000000003    567.9472188219631
8.783833768477808E-4      0.001307836714508372     0.001608                 547.5521675766233
8.488073418756534E-4      0.0012970392473675408    0.001608                 472.28448846125184
8.541243809159068E-4      0.0013383089471654952    0.001608                 448.1495480462371
8.245483459437795E-4      0.001327511480024664     0.001608                 372.15137579690884
8.298653849840329E-4      0.0013687811798226185    0.001608                 344.954388272732
8.002893500119057E-4      0.0013579837126817876    0.0016080000000000003    267.5478808289338
8.05606389052159E-4       0.001399253412479742     0.001608                 237.96668825610814
7.760303540800316E-4      0.001388455945338911     0.001608                 158.47400355732526
7.813473931202852E-4      0.0014297256451368653    0.001608                 127.18644799636492
7.517713581481578E-4      0.0014189281779960342    0.001608                 107.47979109647606
8.677492987672738E-4      0.001225297314912463     0.001608                 713.7020456247426
8.434903028353999E-4      0.0012557695475695864    0.0016079999999999998    556.8101984559835
8.192313069035262E-4      0.0012862417802267097    0.001608                 460.47004461793284
7.949723109716522E-4      0.001316714012883833     0.001608                 359.65950847625146
7.707133150397782E-4      0.0013471862455409563    0.001608                 254.37859003093627
7.464543191079043E-4      0.00137765847819808      0.001608                 186.2367607367469
8.381732637951465E-4      0.0012144998477716317    0.001608                 676.2780860536839
8.139142678632726E-4      0.0012449720804287552    0.001608                 544.9596941037903
7.896552719313988E-4      0.0012754443130858785    0.001608                 447.94211678840156
7.653962759995249E-4      0.0013059165457430019    0.001608                 346.45415716938027
7.411372800676509E-4      0.0013363887784001252    0.001608                 261.71534307157765
8.085972288230192E-4      0.0012037023806308008    0.001608                 637.2146983758573
7.843382328911453E-4      0.0012341746132879241    0.001608                 532.3957057653848
7.600792369592713E-4      0.0012646468459450474    0.001608                 434.7007049726559
7.358202410273974E-4      0.0012951190786021707    0.001608                 333.915538100969
7.790211938508918E-4      0.0011929049134899697    0.001608                 596.511882591263
7.547621979190178E-4      0.001223377146147093     0.001608                 519.1182334407652
7.30503201987144E-4       0.0012538493788042163    0.001608                 402.8373458249217
7.494451588787646E-4      0.0011821074463491384    0.001608                 554.1696386999007
7.251861629468906E-4      0.001212579679006262     0.001608                 468.4807662434349
7.198691239066372E-4      0.0011713099792083075    0.001608                 498.00187843961226
9.28831213138612E-4       0.0012174281355566265    0.0016080000000000003    895.5344816938184
8.992551781664847E-4      0.0012066306684157954    0.0016080000000000003    916.8898044286323
8.696791431943572E-4      0.0011958332012749642    0.001608                 855.4387644870408
8.401031082222299E-4      0.0011850357341341331    0.001608                 791.4223523181264
8.105270732501026E-4      0.0011742382669933022    0.0016080000000000003    724.8405679218894
7.809510382779751E-4      0.001163440799852471     0.001608                 655.6934112983301
7.513750033058479E-4      0.0011526433327116398    0.001608                 596.6804337306019
9.307610575656953E-4      0.0011879640219191279    0.001608                 992.0640715961534
9.01185022593568E-4       0.0011771665547782968    0.0016079999999999998    983.7306954189281
8.716089876214406E-4      0.0011663690876374656    0.001608                 921.9380815756859
8.420329526493133E-4      0.0011555716204966345    0.001608                 857.5800955051211
8.12456917677186E-4       0.0011447741533558036    0.001608                 790.6567372072326
7.828808827050585E-4      0.0011339766862149725    0.001608                 740.0019081395142
9.326909019927786E-4      0.001158499908281629     0.001608                 1077.4767911203817
9.031148670206512E-4      0.0011477024411407982    0.001608                 1040.356260269913
8.735388320485239E-4      0.001136904973999967     0.001608                 978.2220725250195
8.439627970763966E-4      0.001126107506859136     0.001608                 913.522512552804
8.143867621042692E-4      0.0011153100397183048    0.001608                 871.2272118531355
9.346207464198621E-4      0.0011290357946441305    0.001608                 1151.772640266502
9.050447114477347E-4      0.0011182383275032996    0.001608                 1086.7664989815867
8.754686764756073E-4      0.0011074408603624685    0.001608                 1024.2907373350426
8.458926415034799E-4      0.0010966433932216371    0.001608                 990.3563448714668
9.365505908469453E-4      0.0010995716810066319    0.001608                 1214.9516190345148
9.069745558748179E-4      0.0010887742138658008    0.001608                 1122.9614115539493
8.773985209026907E-4      0.0010779767467249696    0.001608                 1097.3893071945072
9.384804352740286E-4      0.0010701075673691333    0.001608                 1267.0137274244194
9.089044003019013E-4      0.0010593101002283022    0.001608                 1192.3260988222562
9.40410279701112E-4       0.0010406434537316347    0.001608                 1367.8662413523768
0.0010437395291680782     0.0014299075014755562    0.001608                 319.6357416813225
0.0010272474371159984     0.0014674177487647682    0.0016080000000000003    233.41503100269512
0.0010027893674566973     0.0014342346980924753    0.0016080000000000003    301.8818289543526
9.862972754046174E-4      0.001471744945381687     0.0016080000000000003    207.52709549217138
0.0010107553450639185     0.0015049279960539803    0.001608                 171.25940588811272
9.698051833525374E-4      0.001509255192670899     0.001608                 144.82049180303625
9.942632530118385E-4      0.001542438243343192     0.001608                 111.8524372984159
9.533130913004575E-4      0.0015467654399601112    0.001608                 84.24273098056972
9.777711609597589E-4      0.0015799484906324044    0.001608                 55.19412523360528
9.368209992483779E-4      0.0015842756872493234    0.0016080000000000003    25.79381302477087
9.612790689076789E-4      0.0016174587379216162    0.001608                 1.2844696936803075
9.203289071962979E-4      0.0016217859345385353    0.001608                 -30.526262064352437
9.447869768555992E-4      0.0016549689852108284    0.001608                 -49.87652932135996
9.618392057453162E-4      0.0014385618947093941    0.001608                 283.4727467797562
9.453471136932363E-4      0.001476072141998606     0.0016079999999999998    198.16152316710128
9.288550216411566E-4      0.0015135823892878182    0.001608                 133.7751148397274
9.123629295890767E-4      0.0015510926365770302    0.001608                 71.51754937902024
8.958708375369969E-4      0.0015886028838662423    0.001608                 11.388826784985781
9.208890440339352E-4      0.001442889091326313     0.001608                 260.3799774895616
9.043969519818553E-4      0.001480399338615525     0.001608                 184.28074862727303
8.879048599297755E-4      0.001517909585904737     0.001608                 118.21453566165965
8.714127678776957E-4      0.001555419833193949     0.001608                 54.277165562715595
8.799388823225542E-4      0.001447216287943232     0.001608                 232.6035210837702
8.634467902704744E-4      0.001484726535232444     0.001608                 165.88477187268822
8.469546982183946E-4      0.0015222367825216561    0.001608                 98.13875426883703
8.389887206111732E-4      0.001451543484560151     0.001608                 200.14337756238058
8.224966285590933E-4      0.001489053731849363     0.001608                 142.97359290334487
7.980385588997922E-4      0.0014558706811770698    0.001608                 162.9995469253933
9.435925344910357E-4      0.0012730372852343295    0.0016080000000000003    786.6071474704983
9.193335385591617E-4      0.0013035095178914528    0.0016080000000000003    651.597435590952
9.602837002705428E-4      0.001299182321274534     0.001608                 725.1970871763035
9.360247043386687E-4      0.0013296545539316575    0.001608                 592.6801456522053
9.769748660500496E-4      0.0013253273573147384    0.001608                 660.2454110529451
9.527158701181759E-4      0.0013557995899718617    0.001608                 531.2018687098087
9.936660318295568E-4      0.0013514723933549428    0.001608                 591.7521191004231
9.694070358976831E-4      0.0013819446260120664    0.0016080000000000003    467.1626047637643
0.001010357197609064      0.0013776174293951473    0.001608                 519.7172113187378
9.8609820167719E-4        0.0014080896620522706    0.001608                 400.5623538140703
0.001027048363388571      0.0014037624654353517    0.001608                 444.14068770788816
8.950745426272878E-4      0.0013339817505485761    0.0016079999999999998    554.9508273148813
9.117657084067948E-4      0.0013601267865887808    0.001608                 495.62178079122566
9.28456874186302E-4       0.0013862718226289852    0.001608                 433.7317472639215
9.45148039965809E-4       0.0014124168586691897    0.001608                 369.2807267329685
8.70815546695414E-4       0.0013644539832056996    0.001608                 455.1895208562047
8.87506712474921E-4       0.001390599019245904     0.001608                 395.4487177476413
9.041978782544282E-4      0.0014167440552861088    0.001608                 333.14692763542905
8.465565507635401E-4      0.0013949262158628232    0.001608                 352.3135162149231
8.63247716543047E-4       0.0014210712519030274    0.001608                 292.160956521451
8.222975548316661E-4      0.0014253984485199465    0.001608                 246.3228133910356
0.0011972054078022243     0.0016664140449962075    0.001608                 -92.74101912837399
0.0011587896188024094     0.0016701376432110408    0.0016080000000000003    -54.17619589561759
0.0011752817108544892     0.0016326273959218287    0.0016080000000000003    -22.75426270054751
0.0011368659218546741     0.001636350994136662     0.0016080000000000003    0.30366924225651104
0.0011203738298025943     0.001673861241425874     0.001608                 -55.945432128270355
0.001098450132854859      0.0016400745923514952    0.001608                 -0.43286222490142023
0.0010819580408027792     0.0016775848396407072    0.001608                 -60.05959848017811
0.0010600343438550441     0.0016437981905663285    0.001608                 -3.659990648448016
0.0010435422518029643     0.0016813084378555405    0.001608                 -66.51869495134314
0.0010216185548552292     0.0016475217887811618    0.0016080000000000003    -9.377716028382142
0.0010051264628031494     0.0016850320360703736    0.001608                 -75.322721541766
9.83202765855414E-4       0.001651245386995995     0.001608                 -17.586038364702652
9.667106738033343E-4      0.0016887556342852072    0.001608                 -86.47167825144382
0.001153358013906754      0.00159884074684745      0.001608                 36.30689059596335
0.0011149422249069388     0.0016025643450622831    0.0016079999999999998    50.99477541483393
0.001076526435907124      0.0016062879432771164    0.001608                 47.36338019281938
0.001038110646907309      0.0016100115414919498    0.001608                 41.24138801441595
9.99694857907494E-4       0.001613735139706783     0.001608                 32.62879887962493
0.0011314343169590187     0.001565054097773071     0.001608                 95.13809540272341
0.0010930185279592038     0.0015687776959879044    0.001608                 101.7552212171868
0.0010546027389593889     0.0015725012942027377    0.001608                 95.22896224031572
0.0010161869499595738     0.001576224892417571     0.001608                 86.21210630705612
0.0011095106200112836     0.0015312674486986926    0.001608                 153.73935171973312
0.0010710948310114687     0.0015349910469135259    0.001608                 152.58500664931785
0.0010326790420116536     0.001538714645128359     0.001608                 143.16388391758954
0.0010875869230635485     0.0014974807996243136    0.001608                 212.1106595469874
0.0010491711340637334     0.001501204397839147     0.001608                 203.4841317112241
0.0010656632261158133     0.0014636941505499351    0.001608                 270.252018884492
0.0013571428571428571     0.0018999999999999998    0.0016079999999999998    -15.12264918447257
0.0013342946500941955     0.0018666305778566009    0.001608                 -12.221821376967956
0.0013754715138987858     0.0018661838374989487    0.001608                 -65.80101140620235
0.001352623306850124      0.0018328144153555498    0.001608                 -37.34334960733463
0.0013114464430455334     0.001833261155713202     0.0016079999999999998    -30.607556184158728
0.0013297750998014619     0.0017994449932121508    0.0016079999999999998    -51.43124475572819
0.0012885982359968715     0.001799891733569803     0.0016079999999999998    -47.6143392184024
0.0013069268927528002     0.001766075571068752     0.001608                 -64.14919208452369
0.0012657500289482099     0.0017665223114264042    0.001608                 -63.242170479697506
0.0012840786857041383     0.001732706148925353     0.001608                 -75.49719159372421
0.0012429018218995478     0.0017331528892830053    0.001608                 -77.49104996804571
0.0012612304786554765     0.0016993367267819541    0.001608                 -85.47524328332783
0.0012200536148508862     0.0016997834671396064    0.001608                 -90.36097768344261
0.0012383822716068146     0.001665967304638555     0.001608                 -105.04634779227868
0.001393800170654714      0.0018323676749978975    0.0016079999999999998    -101.867122550158
0.001370951963606052      0.0017989982528544984    0.0016079999999999998    -59.247453056925565
0.0013481037565573903     0.0017656288307110997    0.0016079999999999998    -69.05101841020507
0.0013252555495087285     0.0017322594085677008    0.001608                 -77.48463594388954
0.0013024073424600666     0.001698889986424302     0.0016079999999999998    -84.54830565797806
0.0012795591354114047     0.001665520564280903     0.001608                 -96.61628691223103
0.0014121288274106423     0.0017985515124968462    0.0016079999999999998    -134.5878587019048
0.0013892806203619807     0.0017651820903534473    0.001608                 -77.77985569216958
0.0013664324133133188     0.0017318126682100486    0.001608                 -83.29909125033748
0.001343584206264657      0.0016984432460666495    0.001608                 -87.44837898890881
0.001320735999215995      0.0016650738239232506    0.001608                 -92.64301897760724
0.001430457484166571      0.001764735349995795     0.001608                 -163.96321986144392
0.0014076092771179091     0.0017313659278523964    0.001608                 -92.9405575130661
0.0013847610700692473     0.0016979965057089973    0.001608                 -94.17546327612217
0.0013619128630205854     0.0016646270835655981    0.001608                 -93.12654398840873
0.0014487861409224994     0.0017309191874947437    0.001608                 -189.99320602876787
0.0014259379338738376     0.0016975497653513448    0.001608                 -104.72955851961711
0.0014030897268251757     0.001664180343207946     0.001608                 -98.06686194463401
0.0014671147976784277     0.0016971030249936928    0.001608                 -212.67781720388115
0.0014442665906297658     0.0016637336028502937    0.001608                 -107.46397284628452
0.0014854434544343562     0.0016632868624926415    0.001608                 -158.47298903474424
5.0E-4                    0.00134                  0.0016079999999999998    159.98132224762227
5.314098748438053E-4      0.0013159014256011869    0.001608                 138.00578079212883
5.367269138840588E-4      0.0013571711253991415    0.001608                 220.73850184168612
5.68136788727864E-4       0.001333072551000328     0.001608                 192.65598072658173
5.628197496876106E-4      0.0012918028512023737    0.0016079999999999998    204.77475340019274
5.995466635716692E-4      0.0013089739766015147    0.0016079999999999998    248.70810016238448
5.942296245314159E-4      0.0012677042768035602    0.0016079999999999998    267.11928122749816
6.309565384154748E-4      0.0012848754022027017    0.001608                 300.6519873433223
6.256394993752212E-4      0.0012436057024047473    0.001608                 325.0393642740455
6.6236641325928E-4        0.0012607768278038883    0.001608                 348.4876422693922
6.570493742190265E-4      0.0012195071280059339    0.001608                 378.53500253983464
6.937762881030851E-4      0.0012366782534050749    0.001608                 392.2150649405974
6.884592490628319E-4      0.0011954085536071207    0.001608                 427.6061960248652
5.734538277681175E-4      0.0013743422507982825    0.0016079999999999998    200.88055082506628
6.048637026119227E-4      0.0013502436763994693    0.0016079999999999998    189.67697636221703
6.362735774557281E-4      0.0013261451020006561    0.0016079999999999998    244.65230127374866
6.676834522995334E-4      0.001302046527601843     0.001608                 295.5193939304129
6.990933271433387E-4      0.0012779479532030297    0.0016079999999999998    342.2782543322122
6.101807416521762E-4      0.0013915133761974237    0.0016079999999999998    180.39813032157724
6.415906164959815E-4      0.0013674148017986105    0.001608                 185.9248599284634
6.730004913397868E-4      0.0013433162273997976    0.001608                 239.82339031572238
7.044103661835922E-4      0.0013192176530009841    0.001608                 289.6136884481155
6.46907655536235E-4       0.001408684501596565     0.001608                 159.2912403312177
6.783175303800403E-4      0.001384585927197752     0.001608                 181.39963142532105
7.097274052238456E-4      0.0013604873527989386    0.001608                 234.2213672883077
6.836345694202937E-4      0.0014258556269957064    0.001608                 137.55988085398712
7.15044444264099E-4       0.001401757052596893     0.001608                 176.10129085278876
7.203614833043525E-4      0.0014430267523948476    0.001608                 115.20405188988633
5.0E-4                    0.0013800000000000002    0.001608                 279.5139341106476
5.367269138840588E-4      0.0013971711253991414    0.001608                 243.34800298745114
5.734538277681175E-4      0.0014143422507982824    0.0016079999999999996    206.706244959905
6.101807416521763E-4      0.0014315133761974238    0.001608                 169.58866002800602
6.469076555362351E-4      0.0014486845015965653    0.001608                 131.99524819175426
6.836345694202937E-4      0.0014658556269957063    0.001608                 93.92600945115234
7.203614833043525E-4      0.0014830267523948475    0.001608                 46.95922384016196
5.0E-4                    0.00142                  0.0016079999999999998    213.84849531429902
5.367269138840587E-4      0.0014371711253991413    0.0016079999999999998    178.854498356701
5.734538277681174E-4      0.0014543422507982827    0.0016079999999999998    143.38467449475291
6.101807416521762E-4      0.001471513376197424     0.001608                 107.43902372845263
6.46907655536235E-4       0.0014886845015965652    0.0016079999999999998    71.01754605780124
6.836345694202937E-4      0.0015058556269957064    0.001608                 29.518437010529627
5.0E-4                    0.00146                  0.0016079999999999996    149.3229235472093
5.367269138840588E-4      0.0014771711253991414    0.0016079999999999998    115.50086075520969
5.734538277681175E-4      0.0014943422507982828    0.001608                 81.20297105886036
6.101807416521762E-4      0.0015115133761974238    0.001608                 46.42925445815837
6.46907655536235E-4       0.001528684501596565     0.0016079999999999998    10.94222677965012
5.0E-4                    0.0015                   0.0016079999999999998    85.93721880937687
5.367269138840587E-4      0.0015171711253991415    0.001608                 53.287090182977124
5.734538277681175E-4      0.0015343422507982827    0.0016079999999999998    20.16113465222483
6.101807416521762E-4      0.001551513376197424     0.0016079999999999998    -8.769406852476333
5.0E-4                    0.0015400000000000001    0.0016079999999999998    23.691381100802886
5.367269138840587E-4      0.0015571711253991411    0.0016079999999999998    -7.786813359998675
5.734538277681175E-4      0.0015743422507982826    0.0016079999999999998    -29.616463885849768
5.0E-4                    0.0015800000000000002    0.0016079999999999998    -37.41458957851336
5.367269138840587E-4      0.0015971711253991413    0.0016079999999999998    -51.598944320470146
5.0E-4                    0.0016200000000000001    0.0016079999999999998    -49.81123210422546
6.782768212245616E-4      0.0017044563726735175    0.001608                 -79.38172882391176
6.852909315711933E-4      0.001667551435960406     0.001608                 -84.95550695870838
6.485640176871345E-4      0.0016903803105612646    0.001608                 -71.26043871686912
6.555781280337663E-4      0.0016534753738481527    0.001608                 -75.76524857615186
6.188512141497076E-4      0.0016763042484490116    0.0016079999999999998    -62.830649500520025
6.258653244963395E-4      0.0016393993117358998    0.001608                 -66.2222725657249
5.891384106122807E-4      0.001662228186336759     0.001608                 -54.0923611748637
5.961525209589126E-4      0.0016253232496236474    0.001608                 -56.326578927426795
5.594256070748538E-4      0.0016481521242245058    0.0016079999999999998    -45.045573739899936
5.664397174214857E-4      0.0016112471875113941    0.0016079999999999998    -46.078167661261205
5.297128035374269E-4      0.0016340760621122532    0.0016079999999999998    -35.69028719562977
6.92305041917825E-4       0.001630646499247294     0.0016079999999999998    -65.70913943789276
6.625922383803983E-4      0.0016165704371350414    0.0016079999999999998    -54.683954281861304
6.328794348429713E-4      0.0016024943750227885    0.001608                 -43.30605149795849
6.031666313055443E-4      0.0015884183129105357    0.0016079999999999998    -31.575431086188246
6.99319152264457E-4       0.0015937415625341825    0.001608                 -43.736654594199194
6.6960634872703E-4        0.0015796655004219297    0.001608                 -30.876542664694398
6.398935451896032E-4      0.0015655894383096768    0.001608                 -17.663713107319154
7.063332626110889E-4      0.001556836625821071     0.001608                 -19.038052427632834
6.766204590736619E-4      0.0015427605637088181    0.001608                 -4.343013724653531
7.133473729577206E-4      0.0015199316891079593    0.001608                 8.386667061808936
0.001179237288320274      0.0016997834671396064    0.001608                 -91.48080512390905
0.0012020854953689358     0.0017331528892830053    0.001608                 -84.68127784663207
0.0012249337024175977     0.0017665223114264042    0.001608                 -67.93878279444908
0.0012477819094662596     0.001799891733569803     0.001608                 -49.808332015965995
0.0012706301165149214     0.001833261155713202     0.001608                 -30.28992551117893
0.0012934783235635829     0.0018666305778566009    0.0016079999999999996    -9.383563280093462
0.0013163265306122447     0.0018999999999999996    0.0016079999999999996    12.910754677291655
0.0011612691688383235     0.0017331528892830053    0.001608                 -101.11931035597854
0.0011841173758869853     0.0017665223114264042    0.0016079999999999998    -74.11594004789328
0.0012069655829356472     0.001799891733569803     0.0016079999999999998    -53.47837170920469
0.001229813789984309      0.001833261155713202     0.001608                 -31.452847644214167
0.0012526619970329707     0.0018666305778566009    0.0016079999999999998    -8.039367852921956
0.0012755102040816328     0.0018999999999999998    0.0016079999999999998    16.762067664671733
0.001143301049356373      0.0017665223114264042    0.0016079999999999998    -107.16000697676304
0.0011661492564050348     0.001799891733569803     0.001608                 -58.79675010571166
0.0011889974634536967     0.001833261155713202     0.001608                 -34.264108480515866
0.0012118456705023585     0.0018666305778566009    0.0016079999999999998    -8.34351112901804
0.0012346938775510204     0.0018999999999999998    0.0016079999999999996    18.965041948782623
0.0011253329298744226     0.001799891733569803     0.001608                 -109.60289498626258
0.0011481811369230845     0.001833261155713202     0.001608                 -38.72370802008266
0.0011710293439717463     0.0018666305778566009    0.0016079999999999998    -10.295993108378994
0.001193877551020408      0.0018999999999999998    0.0016079999999999996    19.519677529625465
0.0011073648103924723     0.001833261155713202     0.0016079999999999998    -108.44797438447773
0.0011302130174411342     0.0018666305778566009    0.0016079999999999998    -13.896813791011631
0.001153061224489796      0.0018999999999999998    0.0016079999999999998    18.425974407201167