% Model:              stripline_filter_simple_decomp_new_mesh.mph
% Version:            COMSOL 6.1.0.252
% Date:               May 18 2023, 17:53
% Dimension:          3
% Nodes:              1951
% Expressions:        1
% Description:        Surface
% X                       Y                        Z                        imag(emw.Hx)
6.810960895425763E-4      0.0051740473853861685    0.005608000000000001     -15.74917322990417
6.925800746188137E-4      0.005145039487821808     0.005608000000000001     -16.999248215460224
7.137664856681099E-4      0.00517747902732094      0.005608000000000001     -18.506200861463945
7.252504707443471E-4      0.005148471129756579     0.005608000000000002     -19.606326587677543
7.04064059695051E-4       0.005116031590257445     0.005608000000000002     -18.153429341200567
7.367344558205844E-4      0.005119463232192217     0.005608000000000001     -20.78102846457665
7.155480447712883E-4      0.005087023692693085     0.005608000000000001     -19.307610466940904
7.482184408968218E-4      0.005090455334627856     0.005608000000000002     -21.955730341475768
7.270320298475256E-4      0.005058015795128722     0.005608000000000001     -20.461791592681248
7.59702425973059E-4       0.005061447437063494     0.005608000000000001     -23.130432218374885
7.385160149237629E-4      0.005029007897564362     0.005608000000000001     -21.615972718421588
7.711864110492965E-4      0.0050324395394991325    0.005608000000000001     -24.786359518519312
7.500000000000002E-4      0.005                    0.005608000000000001     -23.206593921176246
7.464368817936434E-4      0.00518091066925571      0.005608000000000002     -20.82134947675799
7.579208668698806E-4      0.005151902771691349     0.005608                 -22.059648672846667
7.694048519461179E-4      0.005122894874126987     0.005608000000000001     -23.234350549745788
7.808888370223553E-4      0.0050938869765626265    0.005608000000000002     -24.409052426644898
7.923728220985925E-4      0.005064879078998264     0.005608                 -26.019725055934185
7.791072779191767E-4      0.005184342311190481     0.005608000000000001     -23.136498092052022
7.905912629954141E-4      0.00515533441362612      0.005608000000000002     -24.512970758015797
8.020752480716514E-4      0.005126326516061758     0.005608000000000002     -25.68767263491491
8.135592331478887E-4      0.005097318618497397     0.005608000000000001     -27.253090593349057
8.117776740447102E-4      0.005187773953125252     0.005608000000000001     -25.451646707346065
8.232616591209475E-4      0.005158766055560891     0.005608000000000001     -26.96629284318493
8.347456441971848E-4      0.005129758157996529     0.005608                 -28.486456130763937
8.444480701702437E-4      0.005191205595060023     0.005608000000000001     -27.766795322640096
8.55932055246481E-4       0.005162197697495662     0.005608000000000001     -29.71982166817881
8.771184662957771E-4      0.005194637236994794     0.005608000000000001     -30.539666571701574
7.083333333333336E-4      0.005                    0.005608000000000001     -18.936507996254328
6.968493482570963E-4      0.0050290078975643625    0.005608000000000002     -17.80284762167276
6.853653631808589E-4      0.005058015795128723     0.005608000000000001     -16.669187247091195
6.738813781046216E-4      0.005087023692693085     0.005608000000000002     -15.535526872509623
6.623973930283844E-4      0.005116031590257446     0.005608000000000001     -14.401866497928054
6.50913407952147E-4       0.005145039487821808     0.005608000000000001     -12.854821545634803
6.66666666666667E-4       0.005000000000000001     0.005608000000000002     -15.359222191188781
6.551826815904295E-4      0.005029007897564362     0.005608                 -14.225561816607211
6.436986965141923E-4      0.005058015795128722     0.005608000000000001     -13.091901442025645
6.322147114379549E-4      0.005087023692693085     0.005608000000000002     -11.958241067444078
6.207307263617176E-4      0.005116031590257445     0.005608                 -10.3888651336005
6.250000000000001E-4      0.005                    0.005608000000000001     -11.781936386123219
6.135160149237629E-4      0.005029007897564362     0.005608000000000002     -10.648276011541654
6.020320298475257E-4      0.005058015795128723     0.005608000000000002     -9.514615636960084
5.905480447712882E-4      0.005087023692693085     0.005608000000000001     -7.922908721566193
5.833333333333335E-4      0.005                    0.005608000000000001     -8.204650581057667
5.718493482570962E-4      0.005029007897564362     0.005608000000000001     -7.070990206476102
5.603653631808588E-4      0.005058015795128722     0.005608                 -5.456952309531889
5.416666666666669E-4      0.005                    0.005608000000000001     -4.627364775992103
5.301826815904295E-4      0.005029007897564362     0.005608000000000001     -2.990995897497583
5.000000000000001E-4      0.005                    0.005608000000000001     -0.5250394854632807
6.50913407952147E-4       0.005191706154488474     0.005608000000000001     -12.879621387110229
6.207307263617177E-4      0.0051626982569241125    0.005608000000000002     -9.953149574338493
6.207307263617176E-4      0.0052093649235907796    0.005608000000000002     -10.433277722545183
5.905480447712883E-4      0.005180357026026417     0.005608000000000001     -7.464862180753869
5.905480447712882E-4      0.005227023692693084     0.005608000000000001     -7.9869340579801325
5.603653631808589E-4      0.0051980157951287236    0.005608000000000002     -4.9765747871692465
5.603653631808589E-4      0.005244682461795389     0.005608000000000001     -5.54059039341509
5.301826815904296E-4      0.005215674564231028     0.005608000000000001     -2.488287393584624
5.301826815904295E-4      0.005262341230897695     0.005608000000000001     -3.094246728850039
5.000000000000002E-4      0.005233333333333334     0.005608000000000001     -1.1722439076043328E-16
5.000000000000002E-4      0.00528                  0.005608000000000001     -0.9921211155502999
5.905480447712882E-4      0.00513369035935975      0.005608                 -7.464862180753869
5.603653631808588E-4      0.0051513491284620565    0.005608000000000001     -4.9765747871692465
5.301826815904296E-4      0.005169007897564361     0.005608000000000002     -2.488287393584624
5.000000000000002E-4      0.005186666666666666     0.005608                 -8.95402667043278E-17
5.603653631808588E-4      0.005104682461795389     0.005608000000000002     -4.9765747871692465
5.301826815904296E-4      0.005122341230897695     0.005608000000000002     -2.4882873935846237
5.000000000000002E-4      0.0051400000000000005    0.005608000000000001     -6.185614264822131E-17
5.301826815904295E-4      0.005075674564231029     0.005608000000000001     -2.4882873935846237
5.000000000000001E-4      0.005093333333333333     0.005608                 -3.4172018592115187E-17
5.000000000000002E-4      0.005046666666666666     0.005608000000000001     -6.4878945360088945E-18
6.905180417106263E-4      0.005215381003149111     0.005608000000000001     -15.691176602428607
6.60335360120197E-4       0.005233039772251416     0.005608000000000002     -13.0344636436948
6.999399938786763E-4      0.005256714620912052     0.005608000000000002     -15.31934940057055
6.697573122882468E-4      0.0052743733900143565    0.005608000000000001     -12.751121481092254
7.093619460467261E-4      0.0052980482386749935    0.005608000000000001     -14.947522198712484
6.791792644562968E-4      0.005315707007777298     0.005608000000000002     -12.467779318489715
7.187838982147761E-4      0.005339381856437935     0.005608000000000001     -14.575694996854425
6.886012166243468E-4      0.005357040625540241     0.005608000000000001     -12.184437155887167
7.282058503828261E-4      0.005380715474200878     0.005608000000000001     -14.20386779499636
6.980231687923968E-4      0.005398374243303182     0.005608000000000001     -11.539563992148409
7.37627802550876E-4       0.0054220490919638185    0.005608000000000001     -13.64289482703799
6.301526785297676E-4      0.00525069854135372      0.005608                 -10.630063708149324
6.395746306978175E-4      0.005292032159116663     0.005608000000000001     -10.346721545546789
6.489965828658675E-4      0.005333365776879604     0.005608000000000002     -10.063379382944245
6.584185350339174E-4      0.005374699394642545     0.005608                 -9.529287528383824
5.999699969393383E-4      0.005268357310456026     0.005608000000000002     -8.225663772603856
6.093919491073882E-4      0.0053096909282189676    0.005608000000000002     -7.942321610001315
6.188139012754381E-4      0.005351024545981909     0.005608000000000001     -7.519011064619227
5.697873153489089E-4      0.005286016079558331     0.005608000000000001     -5.821263837058385
5.792092675169588E-4      0.005327349697321272     0.005608                 -5.508734600854635
5.396046337584795E-4      0.005303674848660637     0.005608000000000001     -3.498458137090042
7.231884378361597E-4      0.005218812645083882     0.005608000000000002     -18.1204647710359
7.558588339616932E-4      0.005222244287018652     0.005608000000000001     -20.297439916454834
7.885292300872267E-4      0.005225675928953424     0.005608000000000002     -22.47441506187378
8.211996262127601E-4      0.0052291075708881946    0.005608000000000001     -24.651390207292724
8.538700223382936E-4      0.0052325392128229654    0.005608000000000001     -27.08823786495787
7.326103900042097E-4      0.005260146262846823     0.005608                 -17.660152529922314
7.652807861297431E-4      0.005263577904781594     0.005608000000000001     -19.837127675341257
7.979511822552766E-4      0.0052670095467163645    0.005608000000000002     -22.0141028207602
8.306215783808101E-4      0.005270441188651135     0.005608                 -24.376755452944742
7.420323421722597E-4      0.005301479880609764     0.005608000000000002     -17.19984028880873
7.747027382977932E-4      0.005304911522544536     0.005608000000000002     -19.37681543422768
8.073731344233265E-4      0.005308343164479306     0.005608000000000001     -21.665273040931595
7.514542943403096E-4      0.005342813498372706     0.005608000000000001     -16.73952804769515
7.84124690465843E-4       0.005346245140307477     0.005608                 -18.953790628918455
7.608762465083597E-4      0.0053841471161356486    0.005608000000000001     -16.242308216905307
6.980231687923968E-4      0.005445040909969849     0.005608000000000001     -10.55902130415848
6.584185350339175E-4      0.005421366061309212     0.005608000000000002     -8.851925558770018
6.584185350339175E-4      0.005468032727975879     0.005608000000000002     -8.41733093395376
6.188139012754381E-4      0.005444357879315242     0.005608000000000001     -6.525818126527837
6.188139012754381E-4      0.00549102454598191      0.005608000000000001     -6.275640563749045
5.792092675169588E-4      0.005467349697321273     0.005608000000000002     -4.199710694285655
5.792092675169589E-4      0.005514016363987939     0.005608000000000001     -4.133950193544329
5.396046337584796E-4      0.005490341515327303     0.005608000000000001     -1.8736032620434742
5.396046337584795E-4      0.005537008181993969     0.005608000000000001     -1.9922598233396152
5.000000000000002E-4      0.005513333333333333     0.005608000000000001     0.45250417019870426
5.000000000000002E-4      0.00556                  0.005608000000000001     -0.40994765259589805
6.188139012754381E-4      0.005397691212648575     0.005608                 -6.95243040418376
5.792092675169589E-4      0.005420683030654606     0.005608000000000001     -4.626322971941578
5.396046337584796E-4      0.0054436748486606365    0.005608000000000002     -2.3002155396993995
5.000000000000002E-4      0.0054666666666666665    0.005608                 0.025891892542782798
5.792092675169589E-4      0.005374016363987939     0.005608000000000002     -5.052935249597508
5.396046337584796E-4      0.00539700818199397      0.005608000000000002     -2.726827817355323
5.000000000000002E-4      0.0054199999999999995    0.005608000000000001     -0.4007203851131411
5.396046337584796E-4      0.005350341515327303     0.005608000000000001     -3.15344009501125
5.000000000000002E-4      0.005373333333333332     0.005608                 -0.8273326627690684
5.000000000000002E-4      0.005326666666666667     0.005608000000000001     -1.253944940424991
8.837791459363641E-4      0.00561132032429179      0.005608000000000001     -9.79700017772059
8.594205887054495E-4      0.005579775118903795     0.005608000000000001     -10.922322873099876
9.046139597361008E-4      0.005583565838957976     0.005608000000000001     -12.297501639591857
8.802554025051862E-4      0.005552020633569982     0.005608000000000002     -13.195756818788874
8.350620314745348E-4      0.0055482299135157995    0.005608000000000002     -11.639361904932667
8.558968452742715E-4      0.005520475428181986     0.005608000000000001     -14.080936654691934
8.107034742436201E-4      0.005516684708127804     0.005608000000000001     -12.356400936765457
8.315382880433568E-4      0.005488930222793991     0.005608000000000002     -14.966116490595
7.863449170127054E-4      0.005485139502739809     0.005608000000000001     -13.073439968598242
8.071797308124421E-4      0.005457385017405995     0.005608000000000001     -15.851296326498058
7.619863597817908E-4      0.005453594297351814     0.005608000000000001     -13.790479000431036
7.828211735815275E-4      0.005425839812018001     0.005608000000000001     -16.218149951529703
9.254487735358375E-4      0.005555811353624162     0.005608000000000002     -14.781213149282877
9.010902163049228E-4      0.005524266148236166     0.005608                 -15.606120143366134
8.767316590740082E-4      0.005492720942848172     0.005608000000000001     -16.491299979269222
8.523731018430934E-4      0.005461175737460177     0.005608000000000002     -17.37647981517226
8.280145446121787E-4      0.005429630532072181     0.005608                 -18.120791971328327
9.462835873355743E-4      0.005528056868290348     0.005608000000000001     -17.26492465897386
9.219250301046595E-4      0.005496511662902354     0.005608000000000002     -18.016483467943424
8.97566472873745E-4       0.005464966457514358     0.005608000000000002     -18.901663303846462
8.732079156428302E-4      0.005433421252126362     0.005608000000000001     -20.02343399112693
9.671184011353109E-4      0.005500302382956535     0.005608000000000001     -19.748636168664863
9.427598439043963E-4      0.005468757177568539     0.005608000000000001     -20.426846792520685
9.184012866734815E-4      0.0054372119721805435    0.005608                 -21.926076010925527
9.879532149350476E-4      0.00547254789762272      0.005608000000000001     -22.232347678355865
9.63594657704133E-4       0.005441002692234726     0.005608000000000001     -23.828718030724154
0.0010087880287347843     0.005444793412288907     0.005608000000000001     -25.85775412323619
8.06069617539011E-4       0.00538793783618983      0.005608000000000002     -18.48550117815207
8.293180614964944E-4      0.005350035860361658     0.005608000000000001     -21.271178615645827
8.52566505453978E-4       0.005312133884533488     0.005608000000000002     -24.056856053139597
8.758149494114615E-4      0.0052742319087053175    0.005608000000000001     -26.842533490633365
8.99063393368945E-4       0.005236329932877147     0.005608000000000001     -29.89718059461865
8.512629885696623E-4      0.00539172855624401      0.005608                 -20.765601729075073
8.745114325271457E-4      0.005353826580415839     0.005608000000000001     -23.551279166568843
8.977598764846294E-4      0.0053159246045876695    0.005608000000000002     -26.336956604062614
9.210083204421128E-4      0.005278022628759498     0.005608                 -29.296350200377997
8.964563596003137E-4      0.005395519276298192     0.005608000000000002     -23.045702279998103
9.197048035577973E-4      0.0053576173004700215    0.005608000000000002     -25.83137971749187
9.429532475152807E-4      0.005319715324641851     0.005608000000000001     -28.695519806137337
9.416497306309651E-4      0.005399309996352374     0.005608000000000001     -25.325802830921123
9.648981745884486E-4      0.005361408020524202     0.005608                 -28.094689411896685
9.868431016616165E-4      0.005403100716406555     0.005608000000000001     -27.493859017656018
0.0011314448855018467     0.0052140112265065455    0.005608000000000001     -45.275899699608495
0.0011110020760406697     0.00525247492413694      0.005608000000000001     -41.6736720626881
0.0010890571489675018     0.005210782228254588     0.005608000000000001     -42.564298018910236
0.0010686143395063248     0.005249245925884981     0.005608000000000002     -39.19415664653394
0.0010905592665794927     0.005290938621767332     0.005608000000000002     -38.614993347955306
0.0010481715300451476     0.005287709623515374     0.005608000000000001     -36.24107114826744
0.0010701164571183155     0.005329402319397726     0.005608000000000001     -35.5563146332225
0.0010277287205839706     0.005326173321145768     0.005608000000000002     -33.28798565000092
0.0010496736476571385     0.005367866017028119     0.005608000000000001     -32.497635918489706
0.0010072859111227937     0.005364637018776161     0.005608000000000001     -30.334900151734438
0.0010292308381959613     0.005406329714658513     0.005608000000000001     -29.438957203756893
0.001046669412433157      0.005207553230002628     0.005608000000000002     -40.224656861636205
0.0010262266029719797     0.005246016927633022     0.005608                 -36.937155050178006
0.0010057837935108027     0.005284480625263415     0.005608000000000001     -33.9840695519115
9.853409840496258E-4      0.005322944322893809     0.005608000000000002     -31.03098405364499
0.0010042816758988118     0.00520432423175067      0.005608000000000001     -37.88501570436215
9.838388664376349E-4      0.005242787929381063     0.005608000000000002     -34.680153453822065
9.633960569764579E-4      0.005281251627011457     0.005608000000000002     -31.727067955555572
9.61893939364467E-4       0.005201095233498711     0.005608000000000001     -35.545374547088116
9.4145112990329E-4        0.0052395589311291044    0.005608000000000001     -32.42315185746614
9.195062028301221E-4      0.005197866235246753     0.005608000000000001     -33.205733389814064
8.975987219131476E-4      0.005162197697495662     0.005608000000000001     -32.91946064203704
8.764123108638515E-4      0.005129758157996529     0.005608000000000002     -31.883026388199063
8.552258998145553E-4      0.005097318618497397     0.005608000000000001     -30.694915521639324
8.340394887652592E-4      0.005064879078998264     0.005608000000000002     -29.50680465507959
8.12853077715963E-4       0.0050324395394991325    0.005608000000000001     -28.31869378851986
7.916666666666669E-4      0.004999999999999999     0.005608000000000001     -27.130582921960105
9.180789775305182E-4      0.005129758157996529     0.005608000000000001     -34.799876495762796
8.96892566481222E-4       0.0050973186184973965    0.005608                 -33.746024368394565
8.757061554319258E-4      0.005064879078998264     0.005608000000000001     -32.55791350183483
8.545197443826297E-4      0.0050324395394991325    0.005608000000000001     -31.369802635275082
8.333333333333335E-4      0.004999999999999999     0.005608                 -30.18169176871535
9.385592331478886E-4      0.005097318618497396     0.005608                 -36.68029234948854
9.173728220985925E-4      0.005064879078998264     0.005608000000000001     -35.60902234859006
8.961864110492964E-4      0.005032439539499132     0.005608000000000001     -34.420911482030306
8.750000000000001E-4      0.004999999999999999     0.005608                 -33.23280061547058
9.59039488765259E-4       0.005064879078998264     0.005608                 -38.56070820321429
9.378530777159629E-4      0.005032439539499132     0.005608                 -37.47202032878556
9.166666666666668E-4      0.004999999999999999     0.005608                 -36.28390946222583
9.795197443826296E-4      0.005032439539499131     0.005608000000000001     -40.441124056940026
9.583333333333334E-4      0.004999999999999999     0.005608000000000001     -39.33501830898106
0.001                     0.004999999999999998     0.005608                 -42.95752763937404
0.0010219074809169745     0.00503566853775109      0.005608000000000001     -43.61291284256805
0.001001427225299604      0.005068108077250223     0.005608000000000001     -40.88356592927542
0.001043814961833949      0.005071337075502181     0.005608                 -43.98259780394323
0.0010233347062165784     0.005103776615001314     0.005608                 -41.408012920211576
0.0010657224427509234     0.005107005613253272     0.005608                 -44.35228276531836
0.0010452421871335528     0.005139445152752405     0.005608000000000001     -41.93245991114773
0.001087629923667898      0.005142674151004363     0.005608                 -44.72196772669352
0.0010671496680505273     0.005175113690503496     0.005608000000000001     -42.45690690208389
0.0011095374045848722     0.005178342688755454     0.005608                 -45.09165268806865
9.809469696822335E-4      0.005100547616749354     0.005608                 -38.985732202019435
0.001002854450599208      0.005136216154500446     0.005608                 -39.51017919295559
0.0010247619315161825     0.005171884692251537     0.005608000000000001     -40.03462618389174
9.604667140648631E-4      0.0051329871562484876    0.005608                 -37.08789847476344
9.823741949818376E-4      0.005168655693999579     0.005608000000000001     -37.61234546569958
9.399864584474926E-4      0.00516542669574762      0.005608000000000001     -35.19006474750744
0.00125                   0.005                    0.005608000000000001     -54.9416783567998
0.0012302408142503079     0.005035668537751091     0.005608000000000001     -53.29805380553402
0.0012083333333333334     0.004999999999999999     0.005608000000000001     -53.06852496197812
0.0011885741475836412     0.005035668537751092     0.005608000000000002     -51.515643520754764
0.0012104816285006157     0.005071337075502182     0.005608000000000002     -51.75262128792694
0.0011688149618339489     0.005071337075502181     0.005608000000000001     -49.9627620795314
0.0011907224427509233     0.005107005613253272     0.005608000000000001     -50.20718877031986
0.001149055776084257      0.005107005613253272     0.005608000000000002     -48.40988063830803
0.0011709632570012312     0.005142674151004363     0.005608000000000001     -48.66175625271279
0.0011292965903345646     0.005142674151004363     0.005608000000000001     -46.85699919708467
0.0011512040712515388     0.005178342688755455     0.005608000000000001     -47.1163237351057
0.0011666666666666668     0.005                    0.005608000000000001     -51.300720588940635
0.0011469074809169744     0.00503566853775109      0.005608                 -49.74783914771726
0.0011271482951672822     0.005071337075502181     0.005608000000000001     -48.194957706493895
0.00110738910941759       0.005107005613253272     0.005608000000000001     -46.64207626527052
0.0011250000000000001     0.004999999999999999     0.005608                 -49.53291621590311
0.0011052408142503078     0.00503566853775109      0.005608000000000001     -47.98003477467975
0.0010854816285006156     0.005071337075502181     0.005608000000000001     -46.427153333456374
0.0010833333333333333     0.004999999999999999     0.005608                 -47.7651118428656
0.0010635741475836411     0.00503566853775109      0.005608                 -46.212230401642245
0.0010416666666666667     0.004999999999999999     0.005608000000000001     -45.997307469828066
0.0011711331130140282     0.005214832895749905     0.005608000000000001     -46.73140668463789
0.0011908922987637206     0.005179164357998814     0.005608000000000002     -48.32895200752246
0.0012106514845134128     0.005143495820247722     0.005608000000000001     -49.866935601513255
0.0012304106702631051     0.005107827282496632     0.005608000000000002     -51.404919195504064
0.0012501698560127973     0.005072158744745541     0.005608000000000001     -52.94290278949484
0.0012699290417624895     0.00503649020699445      0.005608000000000001     -54.60176223086408
0.00121082134052621       0.005215654564993264     0.005608000000000002     -47.82880269731501
0.001230580526275902      0.005179986027242173     0.005608                 -49.497178673732336
0.0012503397120255944     0.005144317489491082     0.005608000000000001     -51.03516226772312
0.0012700988977752867     0.005108648951739991     0.005608000000000002     -52.57314586171391
0.0012898580835249787     0.0050729804139889       0.005608                 -54.20917159403628
0.0012505095680383916     0.0052164762342366226    0.005608000000000001     -48.92619870999212
0.0012702687537880838     0.0051808076964855315    0.005608000000000002     -50.66540533994222
0.0012900279395377762     0.0051451391587344405    0.005608000000000002     -52.203388933933
0.0013097871252874683     0.0051094706209833494    0.005608000000000001     -53.81658095720848
0.0012901977955505732     0.005217297903479981     0.005608000000000001     -50.023594722669216
0.0013099569813002656     0.005181629365728891     0.005608000000000001     -51.83363200615206
0.0013297161670499575     0.005145960827977799     0.005608                 -53.42399032038067
0.0013298860230627548     0.005218119572723341     0.005608000000000001     -51.120990735346325
0.0013496452088124472     0.00518245103497225      0.005608000000000001     -53.03139968355287
0.0013695742505749366     0.0052189412419667       0.005608000000000001     -52.3758103784283
0.0012916666666666667     0.005                    0.005608000000000001     -56.137019966088346
0.0013115957084291563     0.0050364902069944505    0.005608000000000002     -55.72159562021367
0.0013333333333333335     0.005000000000000001     0.005608000000000002     -57.1359775080595
0.001353262375095823      0.00503649020699445      0.005608000000000001     -56.720553162184785
0.001375                  0.005                    0.005608000000000001     -58.134935050030606
0.0013949290417624896     0.0050364902069944505    0.005608000000000002     -57.71951070415594
0.0014166666666666668     0.005                    0.005608000000000001     -59.13389259200174
0.0014365957084291562     0.00503649020699445      0.005608000000000001     -58.71846824612706
0.0014583333333333334     0.005                    0.005608000000000001     -60.132850133972866
0.0014782623750958228     0.00503649020699445      0.005608000000000001     -59.27929881227402
0.0015                    0.005                    0.005608000000000001     -60.641807761776874
0.0013315247501916455     0.0050729804139889       0.005608                 -55.30617127433897
0.0013731914168583124     0.0050729804139889       0.005608000000000001     -56.305128816310116
0.0014148580835249788     0.0050729804139889       0.005608000000000002     -57.30408635828124
0.0014565247501916456     0.0050729804139889       0.005608                 -57.97368072541154
0.001351453791954135      0.00510947062098335      0.005608000000000002     -54.89074692846431
0.0013931204586208018     0.00510947062098335      0.005608000000000002     -55.88970447043543
0.0014347871252874682     0.0051094706209833494    0.005608000000000001     -56.66806263854909
0.0013713828337166244     0.0051459608279778       0.005608000000000001     -54.475322582589634
0.001413049500383291      0.005145960827977799     0.005608                 -55.36244455168663
0.0013913118754791138     0.00518245103497225      0.005608000000000001     -54.05682646482417
5.301826795946376E-4      0.0055827013348774355    0.005608000000000001     -1.2071356027211506
5.69787313353117E-4       0.005559709516871406     0.005608000000000002     -2.7977003912450065
6.093919471115962E-4      0.005536717698865375     0.005608000000000001     -4.754973699412259
6.489965808700756E-4      0.005513725880859344     0.005608000000000002     -6.712247007579508
6.886012146285548E-4      0.005490734062853315     0.005608000000000001     -8.669520315746757
7.282058483870342E-4      0.005467742244847284     0.005608000000000001     -11.199460581148468
5.603653591892751E-4      0.005605402669754871     0.005608000000000002     -1.3597915026211376
5.999699929477543E-4      0.00558241085174884      0.005608                 -3.0578721201983363
6.395746267062335E-4      0.00555941903374281      0.005608000000000001     -5.015145428365587
6.79179260464713E-4       0.00553642721573678      0.005608000000000002     -6.972418736532836
7.187838942231922E-4      0.00551343539773075      0.005608                 -9.335101865332593
5.905480387839125E-4      0.005628104004632306     0.005608000000000001     -1.51244740252113
6.301526725423917E-4      0.005605112186626276     0.005608000000000002     -3.318043849151657
6.69757306300871E-4       0.005582120368620246     0.005608000000000002     -5.275317157318906
7.093619400593504E-4      0.005559128550614216     0.005608000000000001     -7.470743149516725
6.207307183785498E-4      0.0056508053395097416    0.005608000000000001     -1.665103302421118
6.603353521370291E-4      0.0056278135215037115    0.005608000000000001     -3.5782155781049845
6.999399858955084E-4      0.0056048217034976805    0.005608                 -5.606384433700851
6.509133979731872E-4      0.005673506674387177     0.005608000000000001     -1.8177592023211029
6.905180317316665E-4      0.005650514856381147     0.005608000000000001     -3.7420257178849763
6.810960775678246E-4      0.005696208009264612     0.005608000000000001     -2.0347593959036376